Program Version,EnergyPlus, Version 9.2.0-921312fa1d, YMD=2021.11.29 17:16
1,5,Environment Title[],Latitude[deg],Longitude[deg],Time Zone[],Elevation[m]
2,8,Day of Simulation[],Month[],Day of Month[],DST Indicator[1=yes 0=no],Hour[],StartMinute[],EndMinute[],DayType
3,5,Cumulative Day of Simulation[],Month[],Day of Month[],DST Indicator[1=yes 0=no],DayType  ! When Daily Meters Requested
4,2,Cumulative Days of Simulation[],Month[]  ! When Monthly Meters Requested
5,1,Cumulative Days of Simulation[] ! When Run Period Meters Requested
6,1,Calendar Year of Simulation[] ! When Annual Meters Requested
1215,1,Heating:EnergyTransfer [J] !Hourly
1240,1,Cooling:EnergyTransfer [J] !Hourly
71,1,InteriorLights:Electricity [J] !Hourly
167,1,InteriorEquipment:Electricity [J] !Hourly
End of Data Dictionary
1,XIAN ANN HTG 99.6% CONDNS DB,  37.62,-122.40,  -8.00,   2.00
2,1, 1,21, 0, 1, 0.00,60.00,WinterDesignDay
71,0.0
167,7380108.000000001
1215,146663320.34168244
1240,0.0
2,1, 1,21, 0, 2, 0.00,60.00,WinterDesignDay
71,0.0
167,7380108.000000001
1215,146989728.19390927
1240,0.0
2,1, 1,21, 0, 3, 0.00,60.00,WinterDesignDay
71,0.0
167,7380108.000000001
1215,147234966.65523864
1240,0.0
2,1, 1,21, 0, 4, 0.00,60.00,WinterDesignDay
71,0.0
167,7380108.000000001
1215,147441237.70124758
1240,0.0
2,1, 1,21, 0, 5, 0.00,60.00,WinterDesignDay
71,0.0
167,7380108.000000001
1215,147597233.4560657
1240,0.0
2,1, 1,21, 0, 6, 0.00,60.00,WinterDesignDay
71,0.0
167,7380108.000000001
1215,147729740.07576228
1240,0.0
2,1, 1,21, 0, 7, 0.00,60.00,WinterDesignDay
71,0.0
167,7380108.000000001
1215,160978629.5274723
1240,0.0
2,1, 1,21, 0, 8, 0.00,60.00,WinterDesignDay
71,0.0
167,7380108.000000001
1215,172721923.82534037
1240,0.0
2,1, 1,21, 0, 9, 0.00,60.00,WinterDesignDay
71,0.0
167,29520432.000000005
1215,157356510.25401668
1240,0.0
2,1, 1,21, 0,10, 0.00,60.00,WinterDesignDay
71,0.0
167,29520432.000000005
1215,147579467.1958292
1240,0.0
2,1, 1,21, 0,11, 0.00,60.00,WinterDesignDay
71,0.0
167,29520432.000000005
1215,146357134.4875418
1240,0.0
2,1, 1,21, 0,12, 0.00,60.00,WinterDesignDay
71,0.0
167,29520432.000000005
1215,145672130.17130817
1240,0.0
2,1, 1,21, 0,13, 0.00,60.00,WinterDesignDay
71,0.0
167,7380108.000000001
1215,161929652.270083
1240,0.0
2,1, 1,21, 0,14, 0.00,60.00,WinterDesignDay
71,0.0
167,29520432.000000005
1215,144984010.497107
1240,0.0
2,1, 1,21, 0,15, 0.00,60.00,WinterDesignDay
71,0.0
167,29520432.000000005
1215,144788196.5357573
1240,0.0
2,1, 1,21, 0,16, 0.00,60.00,WinterDesignDay
71,0.0
167,29520432.000000005
1215,144682998.09213925
1240,0.0
2,1, 1,21, 0,17, 0.00,60.00,WinterDesignDay
71,0.0
167,29520432.000000005
1215,150498987.38442237
1240,0.0
2,1, 1,21, 0,18, 0.00,60.00,WinterDesignDay
71,0.0
167,7380108.000000001
1215,167426975.78775258
1240,0.0
2,1, 1,21, 0,19, 0.00,60.00,WinterDesignDay
71,0.0
167,7380108.000000001
1215,138290160.4288398
1240,2342499.9354711489
2,1, 1,21, 0,20, 0.00,60.00,WinterDesignDay
71,0.0
167,7380108.000000001
1215,143243917.2775192
1240,0.0
2,1, 1,21, 0,21, 0.00,60.00,WinterDesignDay
71,0.0
167,7380108.000000001
1215,145463551.38302846
1240,0.0
2,1, 1,21, 0,22, 0.00,60.00,WinterDesignDay
71,0.0
167,7380108.000000001
1215,146579977.57643346
1240,0.0
2,1, 1,21, 0,23, 0.00,60.00,WinterDesignDay
71,0.0
167,7380108.000000001
1215,147239985.10465468
1240,0.0
2,1, 1,21, 0,24, 0.00,60.00,WinterDesignDay
71,0.0
167,7380108.000000001
1215,147722168.95113758
1240,0.0
1,XIAN ANN HTG 99% CONDNS DB,  37.62,-122.40,  -8.00,   2.00
2,1, 1,21, 0, 1, 0.00,60.00,WinterDesignDay
71,0.0
167,7380108.000000001
1215,132222937.48377837
1240,0.0
2,1, 1,21, 0, 2, 0.00,60.00,WinterDesignDay
71,0.0
167,7380108.000000001
1215,132462362.22442153
1240,0.0
2,1, 1,21, 0, 3, 0.00,60.00,WinterDesignDay
71,0.0
167,7380108.000000001
1215,132637915.90675909
1240,0.0
2,1, 1,21, 0, 4, 0.00,60.00,WinterDesignDay
71,0.0
167,7380108.000000001
1215,132776498.96191924
1240,0.0
2,1, 1,21, 0, 5, 0.00,60.00,WinterDesignDay
71,0.0
167,7380108.000000001
1215,132885583.2438117
1240,0.0
2,1, 1,21, 0, 6, 0.00,60.00,WinterDesignDay
71,0.0
167,7380108.000000001
1215,132966435.24321442
1240,0.0
2,1, 1,21, 0, 7, 0.00,60.00,WinterDesignDay
71,0.0
167,7380108.000000001
1215,146149765.9042532
1240,0.0
2,1, 1,21, 0, 8, 0.00,60.00,WinterDesignDay
71,0.0
167,7380108.000000001
1215,157707096.6333472
1240,0.0
2,1, 1,21, 0, 9, 0.00,60.00,WinterDesignDay
71,0.0
167,29520432.000000005
1215,141197689.68377743
1240,0.0
2,1, 1,21, 0,10, 0.00,60.00,WinterDesignDay
71,0.0
167,29520432.000000005
1215,132527731.58451866
1240,0.0
2,1, 1,21, 0,11, 0.00,60.00,WinterDesignDay
71,0.0
167,29520432.000000005
1215,131137066.62631123
1240,0.0
2,1, 1,21, 0,12, 0.00,60.00,WinterDesignDay
71,0.0
167,29520432.000000005
1215,130411659.51396632
1240,0.0
2,1, 1,21, 0,13, 0.00,60.00,WinterDesignDay
71,0.0
167,7380108.000000001
1215,147241376.21249563
1240,0.0
2,1, 1,21, 0,14, 0.00,60.00,WinterDesignDay
71,0.0
167,29520432.000000005
1215,129668480.97951605
1240,0.0
2,1, 1,21, 0,15, 0.00,60.00,WinterDesignDay
71,0.0
167,29520432.000000005
1215,129466069.63106558
1240,0.0
2,1, 1,21, 0,16, 0.00,60.00,WinterDesignDay
71,0.0
167,29520432.000000005
1215,129323599.82505639
1240,0.0
2,1, 1,21, 0,17, 0.00,60.00,WinterDesignDay
71,0.0
167,29520432.000000005
1215,134698036.79535855
1240,0.0
2,1, 1,21, 0,18, 0.00,60.00,WinterDesignDay
71,0.0
167,7380108.000000001
1215,152176831.97004787
1240,0.0
2,1, 1,21, 0,19, 0.00,60.00,WinterDesignDay
71,0.0
167,7380108.000000001
1215,123276015.73055649
1240,2225950.4301497929
2,1, 1,21, 0,20, 0.00,60.00,WinterDesignDay
71,0.0
167,7380108.000000001
1215,127931257.65065831
1240,0.0
2,1, 1,21, 0,21, 0.00,60.00,WinterDesignDay
71,0.0
167,7380108.000000001
1215,130025837.846031
1240,0.0
2,1, 1,21, 0,22, 0.00,60.00,WinterDesignDay
71,0.0
167,7380108.000000001
1215,131182239.34996529
1240,0.0
2,1, 1,21, 0,23, 0.00,60.00,WinterDesignDay
71,0.0
167,7380108.000000001
1215,131908459.11621729
1240,0.0
2,1, 1,21, 0,24, 0.00,60.00,WinterDesignDay
71,0.0
167,7380108.000000001
1215,132384178.15896996
1240,0.0
1,XIAN ANN HUM_N 99.6% CONDNS DP=>MCDB,  37.62,-122.40,  -8.00,   2.00
2,1, 1,21, 0, 1, 0.00,60.00,WinterDesignDay
71,0.0
167,7380108.000000001
1215,81646333.5250085
1240,0.0
2,1, 1,21, 0, 2, 0.00,60.00,WinterDesignDay
71,0.0
167,7380108.000000001
1215,81897060.7178471
1240,0.0
2,1, 1,21, 0, 3, 0.00,60.00,WinterDesignDay
71,0.0
167,7380108.000000001
1215,82099349.01260181
1240,0.0
2,1, 1,21, 0, 4, 0.00,60.00,WinterDesignDay
71,0.0
167,7380108.000000001
1215,82239447.08527273
1240,0.0
2,1, 1,21, 0, 5, 0.00,60.00,WinterDesignDay
71,0.0
167,7380108.000000001
1215,82351785.44292498
1240,0.0
2,1, 1,21, 0, 6, 0.00,60.00,WinterDesignDay
71,0.0
167,7380108.000000001
1215,82429458.38809005
1240,0.0
2,1, 1,21, 0, 7, 0.00,60.00,WinterDesignDay
71,0.0
167,7380108.000000001
1215,95482752.52327898
1240,0.0
2,1, 1,21, 0, 8, 0.00,60.00,WinterDesignDay
71,0.0
167,7380108.000000001
1215,106279297.97981112
1240,0.0
2,1, 1,21, 0, 9, 0.00,60.00,WinterDesignDay
71,0.0
167,29520432.000000005
1215,96859477.27055773
1240,0.0
2,1, 1,21, 0,10, 0.00,60.00,WinterDesignDay
71,0.0
167,29520432.000000005
1215,90256204.28465164
1240,0.0
2,1, 1,21, 0,11, 0.00,60.00,WinterDesignDay
71,0.0
167,29520432.000000005
1215,88955570.53759204
1240,0.0
2,1, 1,21, 0,12, 0.00,60.00,WinterDesignDay
71,0.0
167,29520432.000000005
1215,88136903.458933
1240,0.0
2,1, 1,21, 0,13, 0.00,60.00,WinterDesignDay
71,0.0
167,7380108.000000001
1215,92653285.46663292
1240,0.0
2,1, 1,21, 0,14, 0.00,60.00,WinterDesignDay
71,0.0
167,29520432.000000005
1215,87370892.31958683
1240,0.0
2,1, 1,21, 0,15, 0.00,60.00,WinterDesignDay
71,0.0
167,29520432.000000005
1215,87139577.31718916
1240,0.0
2,1, 1,21, 0,16, 0.00,60.00,WinterDesignDay
71,0.0
167,29520432.000000005
1215,86976299.1982587
1240,0.0
2,1, 1,21, 0,17, 0.00,60.00,WinterDesignDay
71,0.0
167,29520432.000000005
1215,90540808.48739137
1240,0.0
2,1, 1,21, 0,18, 0.00,60.00,WinterDesignDay
71,0.0
167,7380108.000000001
1215,95397692.41751866
1240,0.0
2,1, 1,21, 0,19, 0.00,60.00,WinterDesignDay
71,0.0
167,7380108.000000001
1215,69448477.76069011
1240,3759163.5624778217
2,1, 1,21, 0,20, 0.00,60.00,WinterDesignDay
71,0.0
167,7380108.000000001
1215,76223804.15330026
1240,0.0
2,1, 1,21, 0,21, 0.00,60.00,WinterDesignDay
71,0.0
167,7380108.000000001
1215,78444097.47622787
1240,0.0
2,1, 1,21, 0,22, 0.00,60.00,WinterDesignDay
71,0.0
167,7380108.000000001
1215,79656542.68393655
1240,0.0
2,1, 1,21, 0,23, 0.00,60.00,WinterDesignDay
71,0.0
167,7380108.000000001
1215,80560293.56643404
1240,0.0
2,1, 1,21, 0,24, 0.00,60.00,WinterDesignDay
71,0.0
167,7380108.000000001
1215,81146681.53411485
1240,0.0
1,XIAN ANN HUM_N 99% CONDNS DP=>MCDB,  37.62,-122.40,  -8.00,   2.00
2,1, 1,21, 0, 1, 0.00,60.00,WinterDesignDay
71,0.0
167,7380108.000000001
1215,71713002.12132679
1240,0.0
2,1, 1,21, 0, 2, 0.00,60.00,WinterDesignDay
71,0.0
167,7380108.000000001
1215,71925620.09369396
1240,0.0
2,1, 1,21, 0, 3, 0.00,60.00,WinterDesignDay
71,0.0
167,7380108.000000001
1215,72097587.38165929
1240,0.0
2,1, 1,21, 0, 4, 0.00,60.00,WinterDesignDay
71,0.0
167,7380108.000000001
1215,72635829.3850667
1240,0.0
2,1, 1,21, 0, 5, 0.00,60.00,WinterDesignDay
71,0.0
167,7380108.000000001
1215,73019769.71661598
1240,0.0
2,1, 1,21, 0, 6, 0.00,60.00,WinterDesignDay
71,0.0
167,7380108.000000001
1215,73347988.62217176
1240,0.0
2,1, 1,21, 0, 7, 0.00,60.00,WinterDesignDay
71,0.0
167,7380108.000000001
1215,86625466.37369463
1240,0.0
2,1, 1,21, 0, 8, 0.00,60.00,WinterDesignDay
71,0.0
167,7380108.000000001
1215,97619222.31522015
1240,0.0
2,1, 1,21, 0, 9, 0.00,60.00,WinterDesignDay
71,0.0
167,29520432.000000005
1215,96254063.63024521
1240,0.0
2,1, 1,21, 0,10, 0.00,60.00,WinterDesignDay
71,0.0
167,29520432.000000005
1215,89673611.38895619
1240,0.0
2,1, 1,21, 0,11, 0.00,60.00,WinterDesignDay
71,0.0
167,29520432.000000005
1215,88367370.38103146
1240,0.0
2,1, 1,21, 0,12, 0.00,60.00,WinterDesignDay
71,0.0
167,29520432.000000005
1215,87545375.64825969
1240,0.0
2,1, 1,21, 0,13, 0.00,60.00,WinterDesignDay
71,0.0
167,7380108.000000001
1215,87634700.53477878
1240,0.0
2,1, 1,21, 0,14, 0.00,60.00,WinterDesignDay
71,0.0
167,29520432.000000005
1215,86780045.11791918
1240,0.0
2,1, 1,21, 0,15, 0.00,60.00,WinterDesignDay
71,0.0
167,29520432.000000005
1215,86548693.72361057
1240,0.0
2,1, 1,21, 0,16, 0.00,60.00,WinterDesignDay
71,0.0
167,29520432.000000005
1215,86385673.2423633
1240,0.0
2,1, 1,21, 0,17, 0.00,60.00,WinterDesignDay
71,0.0
167,29520432.000000005
1215,89922807.93325672
1240,0.0
2,1, 1,21, 0,18, 0.00,60.00,WinterDesignDay
71,0.0
167,7380108.000000001
1215,90644899.52893909
1240,0.0
2,1, 1,21, 0,19, 0.00,60.00,WinterDesignDay
71,0.0
167,7380108.000000001
1215,60527809.21379665
1240,3731298.645344926
2,1, 1,21, 0,20, 0.00,60.00,WinterDesignDay
71,0.0
167,7380108.000000001
1215,67461378.09493293
1240,0.0
2,1, 1,21, 0,21, 0.00,60.00,WinterDesignDay
71,0.0
167,7380108.000000001
1215,70654844.1673003
1240,0.0
2,1, 1,21, 0,22, 0.00,60.00,WinterDesignDay
71,0.0
167,7380108.000000001
1215,72351983.10752593
1240,0.0
2,1, 1,21, 0,23, 0.00,60.00,WinterDesignDay
71,0.0
167,7380108.000000001
1215,73525748.50855857
1240,0.0
2,1, 1,21, 0,24, 0.00,60.00,WinterDesignDay
71,0.0
167,7380108.000000001
1215,74325215.45046854
1240,0.0
1,XIAN ANN HTG WIND 99.6% CONDNS WS=>MCDB,  37.62,-122.40,  -8.00,   2.00
2,1, 1,21, 0, 1, 0.00,60.00,WinterDesignDay
71,0.0
167,7380108.000000001
1215,141163173.9447629
1240,0.0
2,1, 1,21, 0, 2, 0.00,60.00,WinterDesignDay
71,0.0
167,7380108.000000001
1215,141472066.0975137
1240,0.0
2,1, 1,21, 0, 3, 0.00,60.00,WinterDesignDay
71,0.0
167,7380108.000000001
1215,141702038.86637489
1240,0.0
2,1, 1,21, 0, 4, 0.00,60.00,WinterDesignDay
71,0.0
167,7380108.000000001
1215,141894012.34066699
1240,0.0
2,1, 1,21, 0, 5, 0.00,60.00,WinterDesignDay
71,0.0
167,7380108.000000001
1215,142037213.3630451
1240,0.0
2,1, 1,21, 0, 6, 0.00,60.00,WinterDesignDay
71,0.0
167,7380108.000000001
1215,142157382.74060623
1240,0.0
2,1, 1,21, 0, 7, 0.00,60.00,WinterDesignDay
71,0.0
167,7380108.000000001
1215,155395594.53451247
1240,0.0
2,1, 1,21, 0, 8, 0.00,60.00,WinterDesignDay
71,0.0
167,7380108.000000001
1215,169882996.26410157
1240,0.0
2,1, 1,21, 0, 9, 0.00,60.00,WinterDesignDay
71,0.0
167,29520432.000000005
1215,165689830.4591662
1240,0.0
2,1, 1,21, 0,10, 0.00,60.00,WinterDesignDay
71,0.0
167,29520432.000000005
1215,142958454.3532057
1240,0.0
2,1, 1,21, 0,11, 0.00,60.00,WinterDesignDay
71,0.0
167,29520432.000000005
1215,141248591.9378524
1240,0.0
2,1, 1,21, 0,12, 0.00,60.00,WinterDesignDay
71,0.0
167,29520432.000000005
1215,140470067.57308383
1240,0.0
2,1, 1,21, 0,13, 0.00,60.00,WinterDesignDay
71,0.0
167,7380108.000000001
1215,146167991.13660527
1240,0.0
2,1, 1,21, 0,14, 0.00,60.00,WinterDesignDay
71,0.0
167,29520432.000000005
1215,139715519.4711239
1240,0.0
2,1, 1,21, 0,15, 0.00,60.00,WinterDesignDay
71,0.0
167,29520432.000000005
1215,139502767.53414337
1240,0.0
2,1, 1,21, 0,16, 0.00,60.00,WinterDesignDay
71,0.0
167,29520432.000000005
1215,139383450.55508823
1240,0.0
2,1, 1,21, 0,17, 0.00,60.00,WinterDesignDay
71,0.0
167,29520432.000000005
1215,161111651.42678584
1240,0.0
2,1, 1,21, 0,18, 0.00,60.00,WinterDesignDay
71,0.0
167,7380108.000000001
1215,167547159.13193644
1240,0.0
2,1, 1,21, 0,19, 0.00,60.00,WinterDesignDay
71,0.0
167,7380108.000000001
1215,130531621.36812714
1240,3250005.5710210578
2,1, 1,21, 0,20, 0.00,60.00,WinterDesignDay
71,0.0
167,7380108.000000001
1215,137478526.30372945
1240,0.0
2,1, 1,21, 0,21, 0.00,60.00,WinterDesignDay
71,0.0
167,7380108.000000001
1215,139778706.98608677
1240,0.0
2,1, 1,21, 0,22, 0.00,60.00,WinterDesignDay
71,0.0
167,7380108.000000001
1215,140874784.9192367
1240,0.0
2,1, 1,21, 0,23, 0.00,60.00,WinterDesignDay
71,0.0
167,7380108.000000001
1215,141522571.7191664
1240,0.0
2,1, 1,21, 0,24, 0.00,60.00,WinterDesignDay
71,0.0
167,7380108.000000001
1215,141993227.75985996
1240,0.0
1,XIAN ANN HTG WIND 99% CONDNS WS=>MCDB,  37.62,-122.40,  -8.00,   2.00
2,1, 1,21, 0, 1, 0.00,60.00,WinterDesignDay
71,0.0
167,7380108.000000001
1215,150919071.8991202
1240,0.0
2,1, 1,21, 0, 2, 0.00,60.00,WinterDesignDay
71,0.0
167,7380108.000000001
1215,151226284.68016348
1240,0.0
2,1, 1,21, 0, 3, 0.00,60.00,WinterDesignDay
71,0.0
167,7380108.000000001
1215,151454673.73770846
1240,0.0
2,1, 1,21, 0, 4, 0.00,60.00,WinterDesignDay
71,0.0
167,7380108.000000001
1215,151645204.51603163
1240,0.0
2,1, 1,21, 0, 5, 0.00,60.00,WinterDesignDay
71,0.0
167,7380108.000000001
1215,151786998.81289206
1240,0.0
2,1, 1,21, 0, 6, 0.00,60.00,WinterDesignDay
71,0.0
167,7380108.000000001
1215,151905864.99106909
1240,0.0
2,1, 1,21, 0, 7, 0.00,60.00,WinterDesignDay
71,0.0
167,7380108.000000001
1215,165137939.34816808
1240,0.0
2,1, 1,21, 0, 8, 0.00,60.00,WinterDesignDay
71,0.0
167,7380108.000000001
1215,179129664.8161322
1240,0.0
2,1, 1,21, 0, 9, 0.00,60.00,WinterDesignDay
71,0.0
167,29520432.000000005
1215,175169270.4168325
1240,0.0
2,1, 1,21, 0,10, 0.00,60.00,WinterDesignDay
71,0.0
167,29520432.000000005
1215,153687010.1133597
1240,0.0
2,1, 1,21, 0,11, 0.00,60.00,WinterDesignDay
71,0.0
167,29520432.000000005
1215,151936121.55349935
1240,0.0
2,1, 1,21, 0,12, 0.00,60.00,WinterDesignDay
71,0.0
167,29520432.000000005
1215,151149117.67350359
1240,0.0
2,1, 1,21, 0,13, 0.00,60.00,WinterDesignDay
71,0.0
167,7380108.000000001
1215,156597195.91912113
1240,0.0
2,1, 1,21, 0,14, 0.00,60.00,WinterDesignDay
71,0.0
167,29520432.000000005
1215,150387671.34328399
1240,0.0
2,1, 1,21, 0,15, 0.00,60.00,WinterDesignDay
71,0.0
167,29520432.000000005
1215,150172909.42214848
1240,0.0
2,1, 1,21, 0,16, 0.00,60.00,WinterDesignDay
71,0.0
167,29520432.000000005
1215,150052135.51472516
1240,0.0
2,1, 1,21, 0,17, 0.00,60.00,WinterDesignDay
71,0.0
167,29520432.000000005
1215,170554274.37015794
1240,0.0
2,1, 1,21, 0,18, 0.00,60.00,WinterDesignDay
71,0.0
167,7380108.000000001
1215,176747122.0809172
1240,0.0
2,1, 1,21, 0,19, 0.00,60.00,WinterDesignDay
71,0.0
167,7380108.000000001
1215,142691844.02210299
1240,1601607.112435977
2,1, 1,21, 0,20, 0.00,60.00,WinterDesignDay
71,0.0
167,7380108.000000001
1215,147311475.79110468
1240,0.0
2,1, 1,21, 0,21, 0.00,60.00,WinterDesignDay
71,0.0
167,7380108.000000001
1215,149532946.42065869
1240,0.0
2,1, 1,21, 0,22, 0.00,60.00,WinterDesignDay
71,0.0
167,7380108.000000001
1215,150619314.7011866
1240,0.0
2,1, 1,21, 0,23, 0.00,60.00,WinterDesignDay
71,0.0
167,7380108.000000001
1215,151262928.75765074
1240,0.0
2,1, 1,21, 0,24, 0.00,60.00,WinterDesignDay
71,0.0
167,7380108.000000001
1215,151731089.30621899
1240,0.0
1,XIAN ANN CLG .4% CONDNS DB=>MWB,  37.62,-122.40,  -8.00,   2.00
2,1, 7,21, 0, 1, 0.00,60.00,SummerDesignDay
71,87973618.99078352
167,14265108.0
1215,10076408.011006453
1240,0.0
2,1, 7,21, 0, 2, 0.00,60.00,SummerDesignDay
71,87973618.99078352
167,14265108.0
1215,9342416.441574505
1240,0.0
2,1, 7,21, 0, 3, 0.00,60.00,SummerDesignDay
71,87973618.99078352
167,14265108.0
1215,8841254.438274555
1240,0.0
2,1, 7,21, 0, 4, 0.00,60.00,SummerDesignDay
71,87973618.99078352
167,14265108.0
1215,8389439.20596842
1240,0.0
2,1, 7,21, 0, 5, 0.00,60.00,SummerDesignDay
71,87973618.99078352
167,14265108.0
1215,8040296.699594047
1240,0.0
2,1, 7,21, 0, 6, 0.00,60.00,SummerDesignDay
71,87798374.58425924
167,14265108.0
1215,8109931.895928371
1240,0.0
2,1, 7,21, 0, 7, 0.00,60.00,SummerDesignDay
71,77174091.88439341
167,14265108.0
1215,8585599.819681654
1240,0.0
2,1, 7,21, 0, 8, 0.00,60.00,SummerDesignDay
71,61567566.655953917
167,14265108.0
1215,8218417.161926915
1240,5989804.231374646
2,1, 7,21, 0, 9, 0.00,60.00,SummerDesignDay
71,52253475.15899962
167,36405432.0
1215,10345735.205801545
1240,14303166.375842695
2,1, 7,21, 0,10, 0.00,60.00,SummerDesignDay
71,46820255.119036469
167,36405432.0
1215,12327340.812366438
1240,12012462.656763196
2,1, 7,21, 0,11, 0.00,60.00,SummerDesignDay
71,45207477.43049181
167,36405432.0
1215,7426113.612852445
1240,12375390.122947231
2,1, 7,21, 0,12, 0.00,60.00,SummerDesignDay
71,45026190.11339775
167,36405432.0
1215,2575122.8290295025
1240,12671006.955946014
2,1, 7,21, 0,13, 0.00,60.00,SummerDesignDay
71,45026190.11339775
167,14265108.0
1215,79872.78608987981
1240,13478708.748743467
2,1, 7,21, 0,14, 0.00,60.00,SummerDesignDay
71,44784473.690605659
167,36405432.0
1215,0.0
1240,16597901.831668254
2,1, 7,21, 0,15, 0.00,60.00,SummerDesignDay
71,45690010.36391195
167,36405432.0
1215,0.0
1240,17328306.329525789
2,1, 7,21, 0,16, 0.00,60.00,SummerDesignDay
71,49182794.67525414
167,36405432.0
1215,442089.37584607957
1240,15786894.875086938
2,1, 7,21, 0,17, 0.00,60.00,SummerDesignDay
71,62377757.62932496
167,36405432.0
1215,0.0
1240,18966911.157278606
2,1, 7,21, 0,18, 0.00,60.00,SummerDesignDay
71,72338661.03581958
167,14265108.0
1215,2260500.8320635238
1240,14008585.94871346
2,1, 7,21, 0,19, 0.00,60.00,SummerDesignDay
71,86240203.56941432
167,14265108.0
1215,15332683.633302819
1240,0.0
2,1, 7,21, 0,20, 0.00,60.00,SummerDesignDay
71,87973618.99078352
167,14265108.0
1215,16098690.546356697
1240,0.0
2,1, 7,21, 0,21, 0.00,60.00,SummerDesignDay
71,87973618.99078352
167,14265108.0
1215,14880202.62067831
1240,0.0
2,1, 7,21, 0,22, 0.00,60.00,SummerDesignDay
71,87973618.99078352
167,14265108.0
1215,13458779.519548879
1240,0.0
2,1, 7,21, 0,23, 0.00,60.00,SummerDesignDay
71,87973618.99078352
167,14265108.0
1215,12224550.453190379
1240,0.0
2,1, 7,21, 0,24, 0.00,60.00,SummerDesignDay
71,87973618.99078352
167,14265108.0
1215,11104672.009119135
1240,0.0
1,XIAN ANN CLG 1% CONDNS DB=>MWB,  37.62,-122.40,  -8.00,   2.00
2,1, 7,21, 0, 1, 0.00,60.00,SummerDesignDay
71,87973618.99078352
167,14265108.0
1215,7331192.906826731
1240,0.0
2,1, 7,21, 0, 2, 0.00,60.00,SummerDesignDay
71,87973618.99078352
167,14265108.0
1215,6606944.386915134
1240,0.0
2,1, 7,21, 0, 3, 0.00,60.00,SummerDesignDay
71,87973618.99078352
167,14265108.0
1215,6113080.7308136499
1240,0.0
2,1, 7,21, 0, 4, 0.00,60.00,SummerDesignDay
71,87973618.99078352
167,14265108.0
1215,5666830.091052393
1240,0.0
2,1, 7,21, 0, 5, 0.00,60.00,SummerDesignDay
71,87973618.99078352
167,14265108.0
1215,5322223.495146003
1240,0.0
2,1, 7,21, 0, 6, 0.00,60.00,SummerDesignDay
71,87798374.58425924
167,14265108.0
1215,5392540.322433395
1240,0.0
2,1, 7,21, 0, 7, 0.00,60.00,SummerDesignDay
71,77174091.88439341
167,14265108.0
1215,5858633.658792086
1240,0.0
2,1, 7,21, 0, 8, 0.00,60.00,SummerDesignDay
71,61567566.655953917
167,14265108.0
1215,6251014.123024556
1240,5175868.722200168
2,1, 7,21, 0, 9, 0.00,60.00,SummerDesignDay
71,52253475.15899962
167,36405432.0
1215,8178800.151926012
1240,13716407.684880058
2,1, 7,21, 0,10, 0.00,60.00,SummerDesignDay
71,46820255.119036469
167,36405432.0
1215,10355682.590830658
1240,11519826.266953832
2,1, 7,21, 0,11, 0.00,60.00,SummerDesignDay
71,45207477.43049181
167,36405432.0
1215,10104776.918473252
1240,11919403.97516106
2,1, 7,21, 0,12, 0.00,60.00,SummerDesignDay
71,45026190.11339775
167,36405432.0
1215,4999266.185741932
1240,12270195.006130482
2,1, 7,21, 0,13, 0.00,60.00,SummerDesignDay
71,45026190.11339775
167,14265108.0
1215,1577325.5602059316
1240,12348746.26658234
2,1, 7,21, 0,14, 0.00,60.00,SummerDesignDay
71,44784473.690605659
167,36405432.0
1215,26842.824312391895
1240,14135268.581326044
2,1, 7,21, 0,15, 0.00,60.00,SummerDesignDay
71,45690010.36391195
167,36405432.0
1215,100131.32221271917
1240,15057575.326316502
2,1, 7,21, 0,16, 0.00,60.00,SummerDesignDay
71,49182794.67525414
167,36405432.0
1215,2111391.623252174
1240,15233279.055503868
2,1, 7,21, 0,17, 0.00,60.00,SummerDesignDay
71,62377757.62932496
167,36405432.0
1215,387259.0744820514
1240,16240394.717400244
2,1, 7,21, 0,18, 0.00,60.00,SummerDesignDay
71,71562486.74439627
167,14265108.0
1215,5531253.378271456
1240,13476277.284957264
2,1, 7,21, 0,19, 0.00,60.00,SummerDesignDay
71,86240203.56941432
167,14265108.0
1215,14508751.063631982
1240,0.0
2,1, 7,21, 0,20, 0.00,60.00,SummerDesignDay
71,87973618.99078352
167,14265108.0
1215,13261354.184174262
1240,0.0
2,1, 7,21, 0,21, 0.00,60.00,SummerDesignDay
71,87973618.99078352
167,14265108.0
1215,12042580.276595362
1240,0.0
2,1, 7,21, 0,22, 0.00,60.00,SummerDesignDay
71,87973618.99078352
167,14265108.0
1215,10656228.94683562
1240,0.0
2,1, 7,21, 0,23, 0.00,60.00,SummerDesignDay
71,87973618.99078352
167,14265108.0
1215,9446617.999830395
1240,0.0
2,1, 7,21, 0,24, 0.00,60.00,SummerDesignDay
71,87973618.99078352
167,14265108.0
1215,8343981.4188573569
1240,0.0
1,XIAN ANN CLG 2% CONDNS DB=>MWB,  37.62,-122.40,  -8.00,   2.00
2,1, 7,21, 0, 1, 0.00,60.00,SummerDesignDay
71,87973618.99078352
167,14265108.0
1215,4781123.254480103
1240,0.0
2,1, 7,21, 0, 2, 0.00,60.00,SummerDesignDay
71,87973618.99078352
167,14265108.0
1215,4065788.998523272
1240,0.0
2,1, 7,21, 0, 3, 0.00,60.00,SummerDesignDay
71,87973618.99078352
167,14265108.0
1215,3578652.9238181917
1240,0.0
2,1, 7,21, 0, 4, 0.00,60.00,SummerDesignDay
71,87973618.99078352
167,14265108.0
1215,3137682.3471110698
1240,0.0
2,1, 7,21, 0, 5, 0.00,60.00,SummerDesignDay
71,87973618.99078352
167,14265108.0
1215,2797461.025982499
1240,0.0
2,1, 7,21, 0, 6, 0.00,60.00,SummerDesignDay
71,87798374.58425924
167,14265108.0
1215,2859129.5066322677
1240,0.0
2,1, 7,21, 0, 7, 0.00,60.00,SummerDesignDay
71,77174091.88439341
167,14265108.0
1215,3322564.2896795759
1240,0.0
2,1, 7,21, 0, 8, 0.00,60.00,SummerDesignDay
71,61567566.655953917
167,14265108.0
1215,4199408.066633418
1240,4235914.08626056
2,1, 7,21, 0, 9, 0.00,60.00,SummerDesignDay
71,52253475.15899962
167,36405432.0
1215,6170581.925744682
1240,13155494.920910752
2,1, 7,21, 0,10, 0.00,60.00,SummerDesignDay
71,46820255.119036469
167,36405432.0
1215,8304041.273342371
1240,11077549.023715903
2,1, 7,21, 0,11, 0.00,60.00,SummerDesignDay
71,45207477.43049181
167,36405432.0
1215,10073200.788968962
1240,11489927.583086197
2,1, 7,21, 0,12, 0.00,60.00,SummerDesignDay
71,45026190.11339775
167,36405432.0
1215,7456742.53723234
1240,11877836.195531514
2,1, 7,21, 0,13, 0.00,60.00,SummerDesignDay
71,45026190.11339775
167,14265108.0
1215,3730996.2080880056
1240,11993385.560481575
2,1, 7,21, 0,14, 0.00,60.00,SummerDesignDay
71,44784473.690605659
167,36405432.0
1215,1679047.0540206764
1240,13407130.101200676
2,1, 7,21, 0,15, 0.00,60.00,SummerDesignDay
71,45690010.36391195
167,36405432.0
1215,1717394.7453911754
1240,14433246.378298125
2,1, 7,21, 0,16, 0.00,60.00,SummerDesignDay
71,49182794.67525414
167,36405432.0
1215,3848641.566472699
1240,14910194.706565332
2,1, 7,21, 0,17, 0.00,60.00,SummerDesignDay
71,60696046.664595369
167,36405432.0
1215,2389087.424417954
1240,14834195.280891337
2,1, 7,21, 0,18, 0.00,60.00,SummerDesignDay
71,71562486.74439627
167,14265108.0
1215,8287086.444841156
1240,13137461.981016698
2,1, 7,21, 0,19, 0.00,60.00,SummerDesignDay
71,86240203.56941432
167,14265108.0
1215,12130848.176961296
1240,0.0
2,1, 7,21, 0,20, 0.00,60.00,SummerDesignDay
71,87973618.99078352
167,14265108.0
1215,10606948.286995218
1240,0.0
2,1, 7,21, 0,21, 0.00,60.00,SummerDesignDay
71,87973618.99078352
167,14265108.0
1215,9415463.419898984
1240,0.0
2,1, 7,21, 0,22, 0.00,60.00,SummerDesignDay
71,87973618.99078352
167,14265108.0
1215,8057081.828894256
1240,0.0
2,1, 7,21, 0,23, 0.00,60.00,SummerDesignDay
71,87973618.99078352
167,14265108.0
1215,6867826.037470885
1240,0.0
2,1, 7,21, 0,24, 0.00,60.00,SummerDesignDay
71,87973618.99078352
167,14265108.0
1215,5780533.984509403
1240,0.0
1,XIAN ANN CLG .4% CONDNS WB=>MDB,  37.62,-122.40,  -8.00,   2.00
2,1, 7,21, 0, 1, 0.00,60.00,SummerDesignDay
71,87973618.99078352
167,14265108.0
1215,2881400.9700590844
1240,0.0
2,1, 7,21, 0, 2, 0.00,60.00,SummerDesignDay
71,87973618.99078352
167,14265108.0
1215,2172413.7992696489
1240,0.0
2,1, 7,21, 0, 3, 0.00,60.00,SummerDesignDay
71,87973618.99078352
167,14265108.0
1215,1690326.3213417168
1240,0.0
2,1, 7,21, 0, 4, 0.00,60.00,SummerDesignDay
71,87973618.99078352
167,14265108.0
1215,1253834.0118899639
1240,0.0
2,1, 7,21, 0, 5, 0.00,60.00,SummerDesignDay
71,87973618.99078352
167,14265108.0
1215,917895.5208956907
1240,0.0
2,1, 7,21, 0, 6, 0.00,60.00,SummerDesignDay
71,87798374.58425924
167,14265108.0
1215,981068.3397905885
1240,0.0
2,1, 7,21, 0, 7, 0.00,60.00,SummerDesignDay
71,75127345.02555853
167,14265108.0
1215,1344219.150543407
1240,0.0
2,1, 7,21, 0, 8, 0.00,60.00,SummerDesignDay
71,59756493.309341337
167,14265108.0
1215,2564281.6104945077
1240,3580190.239907605
2,1, 7,21, 0, 9, 0.00,60.00,SummerDesignDay
71,51477300.867576319
167,36405432.0
1215,4797603.609521321
1240,12161327.90031784
2,1, 7,21, 0,10, 0.00,60.00,SummerDesignDay
71,46820255.119036469
167,36405432.0
1215,6849080.933166519
1240,10727565.060738486
2,1, 7,21, 0,11, 0.00,60.00,SummerDesignDay
71,45026190.11339775
167,36405432.0
1215,8624554.65457422
1240,11142203.412718766
2,1, 7,21, 0,12, 0.00,60.00,SummerDesignDay
71,45026190.11339775
167,36405432.0
1215,8635455.659863035
1240,11629895.280088
2,1, 7,21, 0,13, 0.00,60.00,SummerDesignDay
71,44965761.00769973
167,14265108.0
1215,5102835.587035568
1240,11745440.744822678
2,1, 7,21, 0,14, 0.00,60.00,SummerDesignDay
71,44784473.690605659
167,36405432.0
1215,2891692.9687529106
1240,13197046.353825484
2,1, 7,21, 0,15, 0.00,60.00,SummerDesignDay
71,44784473.690605659
167,36405432.0
1215,2822245.3302540497
1240,14233222.494354994
2,1, 7,21, 0,16, 0.00,60.00,SummerDesignDay
71,49182794.67525414
167,36405432.0
1215,4821407.619514414
1240,14719225.043018576
2,1, 7,21, 0,17, 0.00,60.00,SummerDesignDay
71,59790509.99128908
167,36405432.0
1215,4008539.77713546
1240,14621712.822157009
2,1, 7,21, 0,18, 0.00,60.00,SummerDesignDay
71,71562486.74439627
167,14265108.0
1215,8884233.113969177
1240,12937260.00380132
2,1, 7,21, 0,19, 0.00,60.00,SummerDesignDay
71,86240203.56941432
167,14265108.0
1215,10175069.502233696
1240,0.0
2,1, 7,21, 0,20, 0.00,60.00,SummerDesignDay
71,87973618.99078352
167,14265108.0
1215,8697645.887380518
1240,0.0
2,1, 7,21, 0,21, 0.00,60.00,SummerDesignDay
71,87973618.99078352
167,14265108.0
1215,7508390.54731738
1240,0.0
2,1, 7,21, 0,22, 0.00,60.00,SummerDesignDay
71,87973618.99078352
167,14265108.0
1215,6153503.250143699
1240,0.0
2,1, 7,21, 0,23, 0.00,60.00,SummerDesignDay
71,87973618.99078352
167,14265108.0
1215,4965179.240470344
1240,0.0
2,1, 7,21, 0,24, 0.00,60.00,SummerDesignDay
71,87973618.99078352
167,14265108.0
1215,3876999.2274046179
1240,0.0
1,XIAN ANN CLG 1% CONDNS WB=>MDB,  37.62,-122.40,  -8.00,   2.00
2,1, 7,21, 0, 1, 0.00,60.00,SummerDesignDay
71,87973618.99078352
167,14265108.0
1215,904132.6780763688
1240,0.0
2,1, 7,21, 0, 2, 0.00,60.00,SummerDesignDay
71,87973618.99078352
167,14265108.0
1215,207606.57448370639
1240,4921.132938976734
2,1, 7,21, 0, 3, 0.00,60.00,SummerDesignDay
71,87973618.99078352
167,14265108.0
1215,0.0
1240,272954.1746382327
2,1, 7,21, 0, 4, 0.00,60.00,SummerDesignDay
71,87973618.99078352
167,14265108.0
1215,0.0
1240,704124.452571061
2,1, 7,21, 0, 5, 0.00,60.00,SummerDesignDay
71,87973618.99078352
167,14265108.0
1215,0.0
1240,1035698.6181973807
2,1, 7,21, 0, 6, 0.00,60.00,SummerDesignDay
71,87798374.58425924
167,14265108.0
1215,0.0
1240,971987.5638995224
2,1, 7,21, 0, 7, 0.00,60.00,SummerDesignDay
71,76032881.69886482
167,14265108.0
1215,16720.324514254935
1240,700052.8687897264
2,1, 7,21, 0, 8, 0.00,60.00,SummerDesignDay
71,60662029.98264762
167,14265108.0
1215,1052294.0752476026
1240,2995765.4123613375
2,1, 7,21, 0, 9, 0.00,60.00,SummerDesignDay
71,51477300.867576319
167,36405432.0
1215,3261554.658625575
1240,11783086.134875093
2,1, 7,21, 0,10, 0.00,60.00,SummerDesignDay
71,46820255.119036469
167,36405432.0
1215,5231591.327315892
1240,10431592.362306232
2,1, 7,21, 0,11, 0.00,60.00,SummerDesignDay
71,45026190.11339775
167,36405432.0
1215,6989563.383964073
1240,10801851.620201104
2,1, 7,21, 0,12, 0.00,60.00,SummerDesignDay
71,45026190.11339775
167,36405432.0
1215,8193763.925641094
1240,11292651.883196723
2,1, 7,21, 0,13, 0.00,60.00,SummerDesignDay
71,44965761.00769973
167,14265108.0
1215,7130239.185137715
1240,11426456.672488226
2,1, 7,21, 0,14, 0.00,60.00,SummerDesignDay
71,44784473.690605659
167,36405432.0
1215,4694845.944929689
1240,12899548.622310717