Program Version,EnergyPlus, Version 9.2.0-921312fa1d, YMD=2022.02.15 15:55
1,5,Environment Title[],Latitude[deg],Longitude[deg],Time Zone[],Elevation[m]
2,8,Day of Simulation[],Month[],Day of Month[],DST Indicator[1=yes 0=no],Hour[],StartMinute[],EndMinute[],DayType
3,5,Cumulative Day of Simulation[],Month[],Day of Month[],DST Indicator[1=yes 0=no],DayType  ! When Daily Meters Requested
4,2,Cumulative Days of Simulation[],Month[]  ! When Monthly Meters Requested
5,1,Cumulative Days of Simulation[] ! When Run Period Meters Requested
6,1,Calendar Year of Simulation[] ! When Annual Meters Requested
1093,1,Heating:EnergyTransfer [J] !Hourly
1118,1,Cooling:EnergyTransfer [J] !Hourly
112,1,InteriorLights:Electricity [J] !Hourly
544,1,InteriorEquipment:Electricity [J] !Hourly
76,1,Electricity:Facility [J] !Hourly
2056,1,ElectricityNet:Facility [J] !Hourly
845,1,Gas:Facility [J] !Hourly
End of Data Dictionary
1,GUANGZHOU ANN HTG 99.6% CONDNS DB,  23.17, 113.33,   8.00,  41.00
2,1, 1,21, 0, 1, 0.00,60.00,WinterDesignDay
76,8952115.609756098
112,0.0
544,0.0
845,6791184.0
1093,0.0
1118,0.0
2056,8952115.609756098
2,1, 1,21, 0, 2, 0.00,60.00,WinterDesignDay
76,8952115.609756098
112,0.0
544,0.0
845,6791184.0
1093,0.0
1118,0.0
2056,8952115.609756098
2,1, 1,21, 0, 3, 0.00,60.00,WinterDesignDay
76,8952115.609756098
112,0.0
544,0.0
845,6791184.0
1093,0.0
1118,0.0
2056,8952115.609756098
2,1, 1,21, 0, 4, 0.00,60.00,WinterDesignDay
76,8952115.609756098
112,0.0
544,0.0
845,6791184.0
1093,0.0
1118,0.0
2056,8952115.609756098
2,1, 1,21, 0, 5, 0.00,60.00,WinterDesignDay
76,8952115.609756098
112,0.0
544,0.0
845,6791184.0
1093,0.0
1118,0.0
2056,8952115.609756098
2,1, 1,21, 0, 6, 0.00,60.00,WinterDesignDay
76,8952115.609756098
112,0.0
544,0.0
845,6791184.0
1093,0.0
1118,0.0
2056,8952115.609756098
2,1, 1,21, 0, 7, 0.00,60.00,WinterDesignDay
76,189811620.37015484
112,0.0
544,0.0
845,6791184.0
1093,126312053.04845006
1118,20019278.22227536
2056,189811620.37015487
2,1, 1,21, 0, 8, 0.00,60.00,WinterDesignDay
76,367779583.29760268
112,0.0
544,0.0
845,84184815.44391707
1093,288086561.9561747
1118,1731699.2348341833
2056,367779583.2976027
2,1, 1,21, 0, 9, 0.00,60.00,WinterDesignDay
76,311536158.39246788
112,0.0
544,0.0
845,80129311.97784364
1093,224672135.3174107
1118,0.0
2056,311536158.39246788
2,1, 1,21, 0,10, 0.00,60.00,WinterDesignDay
76,294405103.5961396
112,0.0
544,0.0
845,79156165.44317341
1093,205439030.51475824
1118,0.0
2056,294405103.5961396
2,1, 1,21, 0,11, 0.00,60.00,WinterDesignDay
76,285206849.8512063
112,0.0
544,0.0
845,78631579.78113255
1093,195116617.62840925
1118,0.0
2056,285206849.8512063
2,1, 1,21, 0,12, 0.00,60.00,WinterDesignDay
76,278463823.05675628
112,0.0
544,0.0
845,78330824.90296914
1093,187633942.1901421
1118,0.0
2056,278463823.05675628
2,1, 1,21, 0,13, 0.00,60.00,WinterDesignDay
76,273144087.45424577
112,0.0
544,0.0
845,78124810.13210476
1093,181750962.33089075
1118,0.0
2056,273144087.45424577
2,1, 1,21, 0,14, 0.00,60.00,WinterDesignDay
76,268619900.5004935
112,0.0
544,0.0
845,77958832.96179424
1093,176749342.06585539
1118,0.0
2056,268619900.5004935
2,1, 1,21, 0,15, 0.00,60.00,WinterDesignDay
76,264757429.8937006
112,0.0
544,0.0
845,77818372.53160589
1093,172466211.44400428
1118,0.0
2056,264757429.89370058
2,1, 1,21, 0,16, 0.00,60.00,WinterDesignDay
76,261245184.96434153
112,0.0
544,0.0
845,77688996.31815303
1093,168560501.70551766
1118,0.0
2056,261245184.96434153
2,1, 1,21, 0,17, 0.00,60.00,WinterDesignDay
76,257934552.89780209
112,0.0
544,0.0
845,77570624.2183016
1093,164883955.73992247
1118,0.0
2056,257934552.89780209
2,1, 1,21, 0,18, 0.00,60.00,WinterDesignDay
76,255259245.41463707
112,0.0
544,0.0
845,77451535.24065826
1093,161866508.70277269
1118,0.0
2056,255259245.41463707
2,1, 1,21, 0,19, 0.00,60.00,WinterDesignDay
76,207440989.4683783
112,0.0
544,0.0
845,6791184.0
1093,132365422.17068106
1118,2252837.5459916375
2056,207440989.4683783
2,1, 1,21, 0,20, 0.00,60.00,WinterDesignDay
76,192542823.6833268
112,0.0
544,0.0
845,6791184.0
1093,114972482.61875254
1118,1168513.6853522938
2056,192542823.68332679
2,1, 1,21, 0,21, 0.00,60.00,WinterDesignDay
76,135061039.55071555
112,0.0
544,0.0
845,6791184.0
1093,79570526.92693243
1118,1162599.9589567597
2056,135061039.5507155
2,1, 1,21, 0,22, 0.00,60.00,WinterDesignDay
76,203970579.2773104
112,0.0
544,0.0
845,6791184.0
1093,126971036.20974672
1118,2324240.223937059
2056,203970579.2773104
2,1, 1,21, 0,23, 0.00,60.00,WinterDesignDay
76,14052034.246372013
112,0.0
544,0.0
845,6791184.0
1093,3119785.004160058
1118,20436098.011827489
2056,14052034.246372013
2,1, 1,21, 0,24, 0.00,60.00,WinterDesignDay
76,11497495.609756098
112,0.0
544,0.0
845,6791184.0
1093,0.0
1118,0.0
2056,11497495.609756098
1,GUANGZHOU ANN HTG 99% CONDNS DB,  23.17, 113.33,   8.00,  41.00
2,1, 1,21, 0, 1, 0.00,60.00,WinterDesignDay
76,8952115.609756098
112,0.0
544,0.0
845,6791184.0
1093,0.0
1118,0.0
2056,8952115.609756098
2,1, 1,21, 0, 2, 0.00,60.00,WinterDesignDay
76,8952115.609756098
112,0.0
544,0.0
845,6791184.0
1093,0.0
1118,0.0
2056,8952115.609756098
2,1, 1,21, 0, 3, 0.00,60.00,WinterDesignDay
76,8952115.609756098
112,0.0
544,0.0
845,6791184.0
1093,0.0
1118,0.0
2056,8952115.609756098
2,1, 1,21, 0, 4, 0.00,60.00,WinterDesignDay
76,8952115.609756098
112,0.0
544,0.0
845,6791184.0
1093,0.0
1118,0.0
2056,8952115.609756098
2,1, 1,21, 0, 5, 0.00,60.00,WinterDesignDay
76,8952115.609756098
112,0.0
544,0.0
845,6791184.0
1093,0.0
1118,0.0
2056,8952115.609756098
2,1, 1,21, 0, 6, 0.00,60.00,WinterDesignDay
76,8952115.609756098
112,0.0
544,0.0
845,6791184.0
1093,0.0
1118,0.0
2056,8952115.609756098
2,1, 1,21, 0, 7, 0.00,60.00,WinterDesignDay
76,177051307.62341965
112,0.0
544,0.0
845,6791184.0
1093,113127312.17707245
1118,22115662.454734
2056,177051307.62341965
2,1, 1,21, 0, 8, 0.00,60.00,WinterDesignDay
76,354783622.54219278
112,0.0
544,0.0
845,67566080.00726174
1093,273172271.4488605
1118,1719327.6952736215
2056,354783622.54219278
2,1, 1,21, 0, 9, 0.00,60.00,WinterDesignDay
76,298868507.324433
112,0.0
544,0.0
845,63592972.77183251
1093,210318715.84713013
1118,0.0
2056,298868507.324433
2,1, 1,21, 0,10, 0.00,60.00,WinterDesignDay
76,282809903.0466304
112,0.0
544,0.0
845,62650641.26924466
1093,192271485.48608724
1118,0.0
2056,282809903.0466304
2,1, 1,21, 0,11, 0.00,60.00,WinterDesignDay
76,274207488.9882423
112,0.0
544,0.0
845,62139193.69856902
1093,182609289.00582467
1118,0.0
2056,274207488.9882423
2,1, 1,21, 0,12, 0.00,60.00,WinterDesignDay
76,267908743.00828523
112,0.0
544,0.0
845,61845086.00623604
1093,175615915.07794617
1118,0.0
2056,267908743.00828523
2,1, 1,21, 0,13, 0.00,60.00,WinterDesignDay
76,262945876.86327306
112,0.0
544,0.0
845,61640003.8343969
1093,170120796.99847458
1118,0.0
2056,262945876.86327309
2,1, 1,21, 0,14, 0.00,60.00,WinterDesignDay
76,258762615.15187297
112,0.0
544,0.0
845,61475420.27604934
1093,165491111.8829128
1118,0.0
2056,258762615.151873
2,1, 1,21, 0,15, 0.00,60.00,WinterDesignDay
76,255152113.9300769
112,0.0
544,0.0
845,61335417.6228491
1093,161482799.25893239
1118,0.0
2056,255152113.93007688
2,1, 1,21, 0,16, 0.00,60.00,WinterDesignDay
76,251880451.346223
112,0.0
544,0.0
845,61206001.3131435
1093,157840070.01459898
1118,0.0
2056,251880451.346223
2,1, 1,21, 0,17, 0.00,60.00,WinterDesignDay
76,248785740.38916559
112,0.0
544,0.0
845,61087794.510177019
1093,154400568.14645422
1118,0.0
2056,248785740.38916556
2,1, 1,21, 0,18, 0.00,60.00,WinterDesignDay
76,246303433.6974037
112,0.0
544,0.0
845,60969683.05010834
1093,151595900.16780574
1118,0.0
2056,246303433.6974037
2,1, 1,21, 0,19, 0.00,60.00,WinterDesignDay
76,196533598.89911313
112,0.0
544,0.0
845,6791184.0
1093,122487279.8373349
1118,2533332.835004333
2056,196533598.89911313
2,1, 1,21, 0,20, 0.00,60.00,WinterDesignDay
76,194011109.16893883
112,0.0
544,0.0
845,6791184.0
1093,116864600.42109269
1118,1720257.1574799317
2056,194011109.16893877
2,1, 1,21, 0,21, 0.00,60.00,WinterDesignDay
76,130448233.7480569
112,0.0
544,0.0
845,6791184.0
1093,74456002.44182572
1118,1168157.9579248473
2056,130448233.74805692
2,1, 1,21, 0,22, 0.00,60.00,WinterDesignDay
76,196611330.15135477
112,0.0
544,0.0
845,6791184.0
1093,118563281.12363568
1118,2313901.3916044917
2056,196611330.15135474
2,1, 1,21, 0,23, 0.00,60.00,WinterDesignDay
76,14052034.246372013
112,0.0
544,0.0
845,6791184.0
1093,2917522.7109824225
1118,20689053.147629415
2056,14052034.246372013
2,1, 1,21, 0,24, 0.00,60.00,WinterDesignDay
76,11497495.609756098
112,0.0
544,0.0
845,6791184.0
1093,0.0
1118,0.0
2056,11497495.609756098
1,GUANGZHOU ANN HUM_N 99.6% CONDNS DP=>MCDB,  23.17, 113.33,   8.00,  41.00
2,1, 1,21, 0, 1, 0.00,60.00,WinterDesignDay
76,8952115.609756098
112,0.0
544,0.0
845,6791184.0
1093,0.0
1118,0.0
2056,8952115.609756098
2,1, 1,21, 0, 2, 0.00,60.00,WinterDesignDay
76,8952115.609756098
112,0.0
544,0.0
845,6791184.0
1093,0.0
1118,0.0
2056,8952115.609756098
2,1, 1,21, 0, 3, 0.00,60.00,WinterDesignDay
76,8952115.609756098
112,0.0
544,0.0
845,6791184.0
1093,0.0
1118,0.0
2056,8952115.609756098
2,1, 1,21, 0, 4, 0.00,60.00,WinterDesignDay
76,8952115.609756098
112,0.0
544,0.0
845,6791184.0
1093,0.0
1118,0.0
2056,8952115.609756098
2,1, 1,21, 0, 5, 0.00,60.00,WinterDesignDay
76,8952115.609756098
112,0.0
544,0.0
845,6791184.0
1093,0.0
1118,0.0
2056,8952115.609756098
2,1, 1,21, 0, 6, 0.00,60.00,WinterDesignDay
76,8952115.609756098
112,0.0
544,0.0
845,6791184.0
1093,0.0
1118,0.0
2056,8952115.609756098
2,1, 1,21, 0, 7, 0.00,60.00,WinterDesignDay
76,130050912.48939637
112,0.0
544,0.0
845,6791184.0
1093,60210987.22107291
1118,30930286.25413217
2056,130050912.48939637
2,1, 1,21, 0, 8, 0.00,60.00,WinterDesignDay
76,314940598.4206568
112,0.0
544,0.0
845,6791184.0
1093,221422703.79671366
1118,2248898.410530809
2056,314940598.4206568
2,1, 1,21, 0, 9, 0.00,60.00,WinterDesignDay
76,265664529.5558141
112,0.0
544,0.0
845,6791184.0
1093,165209445.4054723
1118,0.0
2056,265664529.5558141
2,1, 1,21, 0,10, 0.00,60.00,WinterDesignDay
76,252749132.0167899
112,0.0
544,0.0
845,6791184.0
1093,150628572.00659529
1118,0.0
2056,252749132.0167899
2,1, 1,21, 0,11, 0.00,60.00,WinterDesignDay
76,245981936.73528744
112,0.0
544,0.0
845,6791184.0
1093,142981907.0639159
1118,0.0
2056,245981936.73528744
2,1, 1,21, 0,12, 0.00,60.00,WinterDesignDay
76,241058982.9873469
112,0.0
544,0.0
845,6791184.0
1093,137494467.75349713
1118,0.0
2056,241058982.9873469
2,1, 1,21, 0,13, 0.00,60.00,WinterDesignDay
76,237310226.34621764
112,0.0
544,0.0
845,6791184.0
1093,133323400.81026164
1118,0.0
2056,237310226.34621764
2,1, 1,21, 0,14, 0.00,60.00,WinterDesignDay
76,234110414.2794489
112,0.0
544,0.0
845,6791184.0
1093,129772248.2375175
1118,0.0
2056,234110414.2794489
2,1, 1,21, 0,15, 0.00,60.00,WinterDesignDay
76,231364588.32575656
112,0.0
544,0.0
845,6791184.0
1093,126708846.04504556
1118,0.0
2056,231364588.32575656
2,1, 1,21, 0,16, 0.00,60.00,WinterDesignDay
76,228877802.25571738
112,0.0
544,0.0
845,6791184.0
1093,123928508.52556652
1118,0.0
2056,228877802.25571738
2,1, 1,21, 0,17, 0.00,60.00,WinterDesignDay
76,226485419.2466686
112,0.0
544,0.0
845,6791184.0
1093,121263982.83467803
1118,0.0
2056,226485419.2466686
2,1, 1,21, 0,18, 0.00,60.00,WinterDesignDay
76,224631293.44054354
112,0.0
544,0.0
845,6791184.0
1093,119155534.94784808
1118,0.0
2056,224631293.44054354
2,1, 1,21, 0,19, 0.00,60.00,WinterDesignDay
76,176687968.6514331
112,0.0
544,0.0
845,6791184.0
1093,101472955.13806676
1118,4317748.248284989
2056,176687968.65143315
2,1, 1,21, 0,20, 0.00,60.00,WinterDesignDay
76,166557453.70550288
112,0.0
544,0.0
845,6791184.0
1093,78018932.07175753
1118,52512.879613131736
2056,166557453.70550288
2,1, 1,21, 0,21, 0.00,60.00,WinterDesignDay
76,117854604.42043604
112,0.0
544,0.0
845,6791184.0
1093,54641798.71822177
1118,62476.663251537684
2056,117854604.42043606
2,1, 1,21, 0,22, 0.00,60.00,WinterDesignDay
76,176086659.52991048
112,0.0
544,0.0
845,6791184.0
1093,86850986.97613797
1118,130590.79786521377
2056,176086659.52991048
2,1, 1,21, 0,23, 0.00,60.00,WinterDesignDay
76,14052034.246372013
112,0.0
544,0.0
845,6791184.0
1093,2452998.095665002
1118,23060992.45779364
2056,14052034.246372013
2,1, 1,21, 0,24, 0.00,60.00,WinterDesignDay
76,11497495.609756098
112,0.0
544,0.0
845,6791184.0
1093,0.0
1118,0.0
2056,11497495.609756098
1,GUANGZHOU ANN HUM_N 99% CONDNS DP=>MCDB,  23.17, 113.33,   8.00,  41.00
2,1, 1,21, 0, 1, 0.00,60.00,WinterDesignDay
76,8952115.609756098
112,0.0
544,0.0
845,6791184.0
1093,0.0
1118,0.0
2056,8952115.609756098
2,1, 1,21, 0, 2, 0.00,60.00,WinterDesignDay
76,8952115.609756098
112,0.0
544,0.0
845,6791184.0
1093,0.0
1118,0.0
2056,8952115.609756098
2,1, 1,21, 0, 3, 0.00,60.00,WinterDesignDay
76,8952115.609756098
112,0.0
544,0.0
845,6791184.0
1093,0.0
1118,0.0
2056,8952115.609756098
2,1, 1,21, 0, 4, 0.00,60.00,WinterDesignDay
76,8952115.609756098
112,0.0
544,0.0
845,6791184.0
1093,0.0
1118,0.0
2056,8952115.609756098
2,1, 1,21, 0, 5, 0.00,60.00,WinterDesignDay
76,8952115.609756098
112,0.0
544,0.0
845,6791184.0
1093,0.0
1118,0.0
2056,8952115.609756098
2,1, 1,21, 0, 6, 0.00,60.00,WinterDesignDay
76,8952115.609756098
112,0.0
544,0.0
845,6791184.0
1093,0.0
1118,0.0
2056,8952115.609756098
2,1, 1,21, 0, 7, 0.00,60.00,WinterDesignDay
76,126954458.95359086
112,0.0
544,0.0
845,6791184.0
1093,55661161.33714972
1118,32549133.958144245
2056,126954458.95359087
2,1, 1,21, 0, 8, 0.00,60.00,WinterDesignDay
76,310701946.7614802
112,0.0
544,0.0
845,6791184.0
1093,214479395.498939
1118,2288820.1616923979
2056,310701946.7614803
2,1, 1,21, 0, 9, 0.00,60.00,WinterDesignDay
76,262396126.72113843
112,0.0
544,0.0
845,6791184.0
1093,159147053.30596597
1118,0.0
2056,262396126.72113843
2,1, 1,21, 0,10, 0.00,60.00,WinterDesignDay
76,249891896.3168234
112,0.0
544,0.0
845,6791184.0
1093,145025362.62465985
1118,0.0
2056,249891896.3168234
2,1, 1,21, 0,11, 0.00,60.00,WinterDesignDay
76,243366376.7565774
112,0.0
544,0.0
845,6791184.0
1093,137647516.91521175
1118,0.0
2056,243366376.7565774
2,1, 1,21, 0,12, 0.00,60.00,WinterDesignDay
76,238623678.68063507
112,0.0
544,0.0
845,6791184.0
1093,132358437.07721448
1118,0.0
2056,238623678.68063507
2,1, 1,21, 0,13, 0.00,60.00,WinterDesignDay
76,235023872.19306398
112,0.0
544,0.0
845,6791184.0
1093,128350276.40331988
1118,0.0
2056,235023872.19306398
2,1, 1,21, 0,14, 0.00,60.00,WinterDesignDay
76,231952614.94055567
112,0.0
544,0.0
845,6791184.0
1093,124939455.91772111
1118,0.0
2056,231952614.94055567
2,1, 1,21, 0,15, 0.00,60.00,WinterDesignDay
76,229321116.59310497
112,0.0
544,0.0
845,6791184.0
1093,122000968.32368094
1118,0.0
2056,229321116.59310497
2,1, 1,21, 0,16, 0.00,60.00,WinterDesignDay
76,226935796.4304283
112,0.0
544,0.0
845,6791184.0
1093,119331799.92365949
1118,0.0
2056,226935796.4304283
2,1, 1,21, 0,17, 0.00,60.00,WinterDesignDay
76,224633829.81455169
112,0.0
544,0.0
845,6791184.0
1093,116766606.0822335
1118,0.0
2056,224633829.81455169
2,1, 1,21, 0,18, 0.00,60.00,WinterDesignDay
76,222860448.12960399
112,0.0
544,0.0
845,6791184.0
1093,114747248.31839609
1118,0.0
2056,222860448.12960399
2,1, 1,21, 0,19, 0.00,60.00,WinterDesignDay
76,175027403.1785735
112,0.0
544,0.0
845,6791184.0
1093,98261354.40810395
1118,4315213.66233346
2056,175027403.1785735
2,1, 1,21, 0,20, 0.00,60.00,WinterDesignDay
76,165311943.7010054
112,0.0
544,0.0
845,6791184.0
1093,74732281.2768623
1118,51578.54994123227
2056,165311943.7010054
2,1, 1,21, 0,21, 0.00,60.00,WinterDesignDay
76,116976995.50194696
112,0.0
544,0.0
845,6791184.0
1093,52417041.21666105
1118,61397.69984181985
2056,116976995.50194694
2,1, 1,21, 0,22, 0.00,60.00,WinterDesignDay
76,174549683.72505177
112,0.0
544,0.0
845,6791184.0
1093,83305948.48304151
1118,127821.81995729843
2056,174549683.7250518
2,1, 1,21, 0,23, 0.00,60.00,WinterDesignDay
76,14052034.246372013
112,0.0
544,0.0
845,6791184.0
1093,2336114.88337633
1118,23642552.575083708
2056,14052034.246372013
2,1, 1,21, 0,24, 0.00,60.00,WinterDesignDay
76,11497495.609756098
112,0.0
544,0.0
845,6791184.0
1093,0.0
1118,0.0
2056,11497495.609756098
1,GUANGZHOU ANN HTG WIND 99.6% CONDNS WS=>MCDB,  23.17, 113.33,   8.00,  41.00
2,1, 1,21, 0, 1, 0.00,60.00,WinterDesignDay
76,8952115.609756098
112,0.0
544,0.0
845,6791184.0
1093,0.0
1118,0.0
2056,8952115.609756098
2,1, 1,21, 0, 2, 0.00,60.00,WinterDesignDay
76,8952115.609756098
112,0.0
544,0.0
845,6791184.0
1093,0.0
1118,0.0
2056,8952115.609756098
2,1, 1,21, 0, 3, 0.00,60.00,WinterDesignDay
76,8952115.609756098
112,0.0
544,0.0
845,6791184.0
1093,0.0
1118,0.0
2056,8952115.609756098
2,1, 1,21, 0, 4, 0.00,60.00,WinterDesignDay
76,8952115.609756098
112,0.0
544,0.0
845,6791184.0
1093,0.0
1118,0.0
2056,8952115.609756098
2,1, 1,21, 0, 5, 0.00,60.00,WinterDesignDay
76,8952115.609756098
112,0.0
544,0.0
845,6791184.0
1093,0.0
1118,0.0
2056,8952115.609756098
2,1, 1,21, 0, 6, 0.00,60.00,WinterDesignDay
76,8952115.609756098
112,0.0
544,0.0
845,6791184.0
1093,0.0
1118,0.0
2056,8952115.609756098
2,1, 1,21, 0, 7, 0.00,60.00,WinterDesignDay
76,130491540.60614899
112,0.0
544,0.0
845,6791184.0
1093,57995941.070617739
1118,31633295.629830313
2056,130491540.60614899
2,1, 1,21, 0, 8, 0.00,60.00,WinterDesignDay
76,314238345.0045271
112,0.0
544,0.0
845,6791184.0
1093,216871889.25998564
1118,2200809.4431306088
2056,314238345.0045271
2,1, 1,21, 0, 9, 0.00,60.00,WinterDesignDay
76,265388221.24908556
112,0.0
544,0.0
845,6791184.0
1093,160939984.64396698
1118,0.0
2056,265388221.24908559
2,1, 1,21, 0,10, 0.00,60.00,WinterDesignDay
76,252497645.9573377
112,0.0
544,0.0
845,6791184.0
1093,146396392.52416478
1118,0.0
2056,252497645.9573377
2,1, 1,21, 0,11, 0.00,60.00,WinterDesignDay
76,245710154.79339449
112,0.0
544,0.0
845,6791184.0
1093,138729438.35947628
1118,0.0
2056,245710154.79339449
2,1, 1,21, 0,12, 0.00,60.00,WinterDesignDay
76,240752886.03079225
112,0.0
544,0.0
845,6791184.0
1093,133201442.16232066
1118,0.0
2056,240752886.03079225
2,1, 1,21, 0,13, 0.00,60.00,WinterDesignDay
76,236965827.7007988
112,0.0
544,0.0
845,6791184.0
1093,128983081.55092697
1118,0.0
2056,236965827.7007988
2,1, 1,21, 0,14, 0.00,60.00,WinterDesignDay
76,233726919.9462403
112,0.0
544,0.0
845,6791184.0
1093,125383005.56248719
1118,0.0
2056,233726919.9462403
2,1, 1,21, 0,15, 0.00,60.00,WinterDesignDay
76,230941878.76416705
112,0.0
544,0.0
845,6791184.0
1093,122270289.37513112
1118,0.0
2056,230941878.76416705
2,1, 1,21, 0,16, 0.00,60.00,WinterDesignDay
76,228416794.72463916
112,0.0
544,0.0
845,6791184.0
1093,119441774.32233536
1118,0.0
2056,228416794.72463916
2,1, 1,21, 0,17, 0.00,60.00,WinterDesignDay
76,225987415.1328441
112,0.0
544,0.0
845,6791184.0
1093,116730683.16335784
1118,0.0
2056,225987415.1328441
2,1, 1,21, 0,18, 0.00,60.00,WinterDesignDay
76,224097672.07469205
112,0.0
544,0.0
845,6791184.0
1093,114577520.40313334
1118,0.0
2056,224097672.07469205
2,1, 1,21, 0,19, 0.00,60.00,WinterDesignDay
76,183496019.27018199
112,0.0
544,0.0
845,6791184.0
1093,102933847.4550147
1118,4928499.25812479
2056,183496019.27018199
2,1, 1,21, 0,20, 0.00,60.00,WinterDesignDay
76,174275393.27521528
112,0.0
544,0.0
845,6791184.0
1093,83824523.44077814
1118,43468.21649464418
2056,174275393.27521525
2,1, 1,21, 0,21, 0.00,60.00,WinterDesignDay
76,123439160.30912805
112,0.0
544,0.0
845,6791184.0
1093,58951451.4454282
1118,55155.222033802056
2056,123439160.30912805
2,1, 1,21, 0,22, 0.00,60.00,WinterDesignDay
76,185771676.36029873
112,0.0
544,0.0
845,6791184.0
1093,94652723.92392585
1118,116457.40975165808
2056,185771676.36029873
2,1, 1,21, 0,23, 0.00,60.00,WinterDesignDay
76,14052034.246372013
112,0.0
544,0.0
845,6791184.0
1093,2262162.6876151359
1118,23662066.026299389
2056,14052034.246372013
2,1, 1,21, 0,24, 0.00,60.00,WinterDesignDay
76,11497495.609756098
112,0.0
544,0.0
845,6791184.0
1093,0.0
1118,0.0
2056,11497495.609756098
1,GUANGZHOU ANN HTG WIND 99% CONDNS WS=>MCDB,  23.17, 113.33,   8.00,  41.00
2,1, 1,21, 0, 1, 0.00,60.00,WinterDesignDay
76,8952115.609756098
112,0.0
544,0.0
845,6791184.0
1093,0.0
1118,0.0
2056,8952115.609756098
2,1, 1,21, 0, 2, 0.00,60.00,WinterDesignDay
76,8952115.609756098
112,0.0
544,0.0
845,6791184.0
1093,0.0
1118,0.0
2056,8952115.609756098
2,1, 1,21, 0, 3, 0.00,60.00,WinterDesignDay
76,8952115.609756098
112,0.0
544,0.0
845,6791184.0
1093,0.0
1118,0.0
2056,8952115.609756098
2,1, 1,21, 0, 4, 0.00,60.00,WinterDesignDay
76,8952115.609756098
112,0.0
544,0.0
845,6791184.0
1093,0.0
1118,0.0
2056,8952115.609756098
2,1, 1,21, 0, 5, 0.00,60.00,WinterDesignDay
76,8952115.609756098
112,0.0
544,0.0
845,6791184.0
1093,0.0
1118,0.0
2056,8952115.609756098
2,1, 1,21, 0, 6, 0.00,60.00,WinterDesignDay
76,8952115.609756098
112,0.0
544,0.0
845,6791184.0
1093,0.0
1118,0.0
2056,8952115.609756098
2,1, 1,21, 0, 7, 0.00,60.00,WinterDesignDay
76,131360855.94371274
112,0.0
544,0.0
845,6791184.0
1093,60244828.393040169
1118,30561063.589053144
2056,131360855.94371274
2,1, 1,21, 0, 8, 0.00,60.00,WinterDesignDay
76,315569898.4335519
112,0.0
544,0.0
845,6791184.0
1093,220608975.61943145
1118,2197737.8108465808
2056,315569898.4335519
2,1, 1,21, 0, 9, 0.00,60.00,WinterDesignDay
76,266262247.6557879
112,0.0
544,0.0
845,6791184.0
1093,164208505.9785191
1118,0.0
2056,266262247.6557879
2,1, 1,21, 0,10, 0.00,60.00,WinterDesignDay
76,253180089.82262475
112,0.0
544,0.0
845,6791184.0
1093,149449429.2225861
1118,0.0
2056,253180089.82262475
2,1, 1,21, 0,11, 0.00,60.00,WinterDesignDay
76,246284431.59419153
112,0.0
544,0.0
845,6791184.0
1093,141661459.11731569
1118,0.0
2056,246284431.59419153
2,1, 1,21, 0,12, 0.00,60.00,WinterDesignDay
76,241248691.08807645
112,0.0
544,0.0
845,6791184.0
1093,136047030.77129445
1118,0.0
2056,241248691.08807645
2,1, 1,21, 0,13, 0.00,60.00,WinterDesignDay
76,237397897.29646296
112,0.0
544,0.0
845,6791184.0
1093,131759171.57140833
1118,0.0
2056,237397897.29646299
2,1, 1,21, 0,14, 0.00,60.00,WinterDesignDay
76,234104611.24706898
112,0.0
544,0.0
845,6791184.0
1093,128100084.48837136
1118,0.0
2056,234104611.24706898
2,1, 1,21, 0,15, 0.00,60.00,WinterDesignDay
76,231271704.49175713
112,0.0
544,0.0
845,6791184.0
1093,124935489.389902
1118,0.0
2056,231271704.49175713
2,1, 1,21, 0,16, 0.00,60.00,WinterDesignDay
76,228704563.50324498
112,0.0
544,0.0
845,6791184.0
1093,122061331.77655688
1118,0.0
2056,228704563.50324498
2,1, 1,21, 0,17, 0.00,60.00,WinterDesignDay
76,226238080.93080498
112,0.0
544,0.0
845,6791184.0
1093,119309906.63626501
1118,0.0
2056,226238080.93080498
2,1, 1,21, 0,18, 0.00,60.00,WinterDesignDay
76,224315586.00427408
112,0.0
544,0.0
845,6791184.0
1093,117120950.14502436
1118,0.0
2056,224315586.00427408
2,1, 1,21, 0,19, 0.00,60.00,WinterDesignDay
76,182845819.4739632
112,0.0
544,0.0
845,6791184.0
1093,103748279.8400102
1118,5033350.796698257
2056,182845819.4739632
2,1, 1,21, 0,20, 0.00,60.00,WinterDesignDay
76,173213395.69383619
112,0.0
544,0.0
845,6791184.0
1093,84367520.46203973
1118,44439.384308260735
2056,173213395.69383616
2,1, 1,21, 0,21, 0.00,60.00,WinterDesignDay
76,122671274.16896397
112,0.0
544,0.0
845,6791184.0
1093,59256471.300088997
1118,56237.83099636002
2056,122671274.16896397
2,1, 1,21, 0,22, 0.00,60.00,WinterDesignDay
76,184597661.69281835
112,0.0
544,0.0
845,6791184.0
1093,95090093.80883438
1118,118759.27896371213
2056,184597661.69281835
2,1, 1,21, 0,23, 0.00,60.00,WinterDesignDay
76,14052034.246372013
112,0.0
544,0.0
845,6791184.0
1093,2302273.8216939
1118,23180323.19177303
2056,14052034.246372013
2,1, 1,21, 0,24, 0.00,60.00,WinterDesignDay
76,11497495.609756098
112,0.0
544,0.0
845,6791184.0
1093,0.0
1118,0.0
2056,11497495.609756098
1,GUANGZHOU ANN CLG .4% CONDNS DB=>MWB,  23.17, 113.33,   8.00,  41.00
2,1, 7,21, 0, 1, 0.00,60.00,SummerDesignDay
76,474340592.4597803
112,152517470.7542746
544,224813060.55296705
845,6791184.0
1093,1893050.7541465876
1118,219695329.40928985
2056,474340592.4597803
2,1, 7,21, 0, 2, 0.00,60.00,SummerDesignDay
76,474752764.61978217
112,152517470.7542746
544,224813060.55296705
845,6791184.0
1093,1193339.925626008
1118,223837189.77102817
2056,474752764.6197822
2,1, 7,21, 0, 3, 0.00,60.00,SummerDesignDay
76,447914049.29287776
112,152517470.7542746
544,224813060.55296705
845,6791184.0
1093,1212557.660871366
1118,155529500.31080879
2056,447914049.29287776
2,1, 7,21, 0, 4, 0.00,60.00,SummerDesignDay
76,478698098.7323561
112,152517470.7542746
544,224813060.55296705
845,6791184.0
1093,2326667.809028264
1118,242027594.51249043
2056,478698098.732356
2,1, 7,21, 0, 5, 0.00,60.00,SummerDesignDay
76,474341934.7642148
112,152517470.7542746
544,224813060.55296705
845,6791184.0
1093,1151592.9042413075
1118,231871721.27378948
2056,474341934.76421478
2,1, 7,21, 0, 6, 0.00,60.00,SummerDesignDay
76,460336442.59501126
112,152517470.7542746
544,224813060.55296705
845,6791184.0
1093,1267777.6793105957
1118,196514145.6001519
2056,460336442.5950111
2,1, 7,21, 0, 7, 0.00,60.00,SummerDesignDay
76,542462819.6638124
112,131886500.00307139
544,224813060.55296705
845,6791184.0
1093,763087.6600394545
1118,490262876.56751796
2056,542462819.6638124
2,1, 7,21, 0, 8, 0.00,60.00,SummerDesignDay
76,697549467.6152078
112,119991185.40467142
544,224813060.55296705
845,6791184.0
1093,0.0
1118,648659871.560386
2056,697549467.6152078
2,1, 7,21, 0, 9, 0.00,60.00,SummerDesignDay
76,712297202.0313158
112,119991185.40467142
544,224813060.55296705
845,6791184.0
1093,0.0
1118,650472374.8190026
2056,712297202.0313157
2,1, 7,21, 0,10, 0.00,60.00,SummerDesignDay
76,737261029.7046799
112,119991185.40467142
544,224813060.55296705
845,6791184.0
1093,0.0
1118,669554131.5257899
2056,737261029.7046797
2,1, 7,21, 0,11, 0.00,60.00,SummerDesignDay
76,750789994.6441934
112,119991185.40467142
544,224813060.55296705
845,6791184.0
1093,0.0
1118,677032530.942424
2056,750789994.6441933
2,1, 7,21, 0,12, 0.00,60.00,SummerDesignDay
76,752775527.0056808
112,119991185.40467142
544,224813060.55296705
845,20498231.55007991
1093,0.0
1118,672047468.0629921
2056,752775527.0056808
2,1, 7,21, 0,13, 0.00,60.00,SummerDesignDay
76,752396263.5535151
112,119991185.40467142
544,224813060.55296705
845,24397017.430805729
1093,0.0
1118,664038895.6738786
2056,752396263.553515
2,1, 7,21, 0,14, 0.00,60.00,SummerDesignDay
76,767353885.6200874
112,119991185.40467142
544,224813060.55296705
845,22197854.954174848
1093,0.0
1118,674868311.0020208
2056,767353885.6200873
2,1, 7,21, 0,15, 0.00,60.00,SummerDesignDay
76,779892510.8578185
112,119991185.40467142
544,224813060.55296705
845,15531353.79309871
1093,0.0
1118,687549167.8505787
2056,779892510.8578184
2,1, 7,21, 0,16, 0.00,60.00,SummerDesignDay
76,779398737.849687
112,119991185.40467142
544,224813060.55296705
845,15483543.987827916
1093,0.0
1118,690654626.3725233
2056,779398737.849687
2,1, 7,21, 0,17, 0.00,60.00,SummerDesignDay
76,761083189.91048
112,119991185.40467142
544,224813060.55296705
845,20335494.10861838
1093,0.0
1118,673934807.514224
2056,761083189.91048
2,1, 7,21, 0,18, 0.00,60.00,SummerDesignDay
76,723473891.5736151
112,120131322.63904399
544,224813060.55296705
845,11029755.584174406
1093,0.0
1118,630697154.2868215
2056,723473891.5736151
2,1, 7,21, 0,19, 0.00,60.00,SummerDesignDay
76,691661378.2387246
112,136951668.73134173
544,224813060.55296705
845,10979609.737127785
1093,0.0
1118,570060101.3086324
2056,691661378.2387246
2,1, 7,21, 0,20, 0.00,60.00,SummerDesignDay
76,691352299.0545753
112,152517470.7542746
544,224813060.55296705
845,6791184.0
1093,0.0
1118,534023807.4176022
2056,691352299.0545753
2,1, 7,21, 0,21, 0.00,60.00,SummerDesignDay
76,676021825.6354236
112,152517470.7542746
544,224813060.55296705
845,6791184.0
1093,0.0
1118,513824737.4457526
2056,676021825.6354234
2,1, 7,21, 0,22, 0.00,60.00,SummerDesignDay
76,663993507.2275876
112,152517470.7542746
544,224813060.55296705
845,6791184.0
1093,0.0
1118,499163825.0611425
2056,663993507.2275875
2,1, 7,21, 0,23, 0.00,60.00,SummerDesignDay
76,452474550.55093029
112,152517470.7542746
544,224813060.55296705
845,6791184.0
1093,3176840.443380799
1118,150570708.53656454
2056,452474550.55093029
2,1, 7,21, 0,24, 0.00,60.00,SummerDesignDay
76,454116908.26350858
112,152517470.7542746
544,224813060.55296705
845,6791184.0
1093,2354193.214302466
1118,161062025.86473147
2056,454116908.2635087
1,GUANGZHOU ANN CLG 1% CONDNS DB=>MWB,  23.17, 113.33,   8.00,  41.00
2,1, 7,21, 0, 1, 0.00,60.00,SummerDesignDay
76,472134242.416206
112,152517470.7542746
544,224813060.55296705
845,6791184.0
1093,1777047.3938970753
1118,216202322.55470867
2056,472134242.416206
2,1, 7,21, 0, 2, 0.00,60.00,SummerDesignDay
76,472866252.01628258
112,152517470.7542746
544,224813060.55296705
845,6791184.0
1093,1204858.1602205989
1118,222253048.21131198
2056,472866252.0162825
2,1, 7,21, 0, 3, 0.00,60.00,SummerDesignDay
76,446545497.51894256
112,152517470.7542746
544,224813060.55296705
845,6791184.0
1093,1220036.7609288269
1118,154132660.1927808
2056,446545497.51894256
2,1, 7,21, 0, 4, 0.00,60.00,SummerDesignDay
76,476597765.642935
112,152517470.7542746
544,224813060.55296705
845,6791184.0
1093,2366899.6744517695
1118,239925623.1026833
2056,476597765.64293506
2,1, 7,21, 0, 5, 0.00,60.00,SummerDesignDay
76,472372913.82191088
112,152517470.7542746
544,224813060.55296705
845,6791184.0
1093,1167060.8653872745
1118,230038518.58681727
2056,472372913.82191088
2,1, 7,21, 0, 6, 0.00,60.00,SummerDesignDay
76,457948160.7350279
112,152517470.7542746
544,224813060.55296705
845,6791184.0
1093,1324292.3050549383
1118,193630355.96712543
2056,457948160.73502799
2,1, 7,21, 0, 7, 0.00,60.00,SummerDesignDay
76,534779555.5292161
112,131886500.00307139
544,224813060.55296705
845,6791184.0
1093,825354.1065630515
1118,480700060.48578837
2056,534779555.52921608
2,1, 7,21, 0, 8, 0.00,60.00,SummerDesignDay
76,683887761.1975616
112,119991185.40467142
544,224813060.55296705
845,6791184.0
1093,0.0
1118,637647388.0975907
2056,683887761.1975615
2,1, 7,21, 0, 9, 0.00,60.00,SummerDesignDay
76,698622685.6781528
112,119991185.40467142
544,224813060.55296705
845,6791184.0
1093,0.0
1118,640348916.6060984
2056,698622685.6781527
2,1, 7,21, 0,10, 0.00,60.00,SummerDesignDay
76,723120283.3329382
112,119991185.40467142
544,224813060.55296705
845,6791184.0
1093,0.0
1118,659983933.179098
2056,723120283.3329382
2,1, 7,21, 0,11, 0.00,60.00,SummerDesignDay
76,736278170.093601
112,119991185.40467142