Program Version,EnergyPlus, Version 9.2.0-921312fa1d, YMD=2022.02.15 15:55
1,5,Environment Title[],Latitude[deg],Longitude[deg],Time Zone[],Elevation[m]
2,8,Day of Simulation[],Month[],Day of Month[],DST Indicator[1=yes 0=no],Hour[],StartMinute[],EndMinute[],DayType
3,5,Cumulative Day of Simulation[],Month[],Day of Month[],DST Indicator[1=yes 0=no],DayType  ! When Daily Report Variables Requested
4,2,Cumulative Days of Simulation[],Month[]  ! When Monthly Report Variables Requested
5,1,Cumulative Days of Simulation[] ! When Run Period Report Variables Requested
6,1,Calendar Year of Simulation[] ! When Annual Report Variables Requested
9,1,Environment,Site Wind Speed [m/s] !Hourly
10,1,Environment,Site Direct Solar Radiation Rate per Area [W/m2] !Hourly
1093,1,Heating:EnergyTransfer [J] !Hourly
1118,1,Cooling:EnergyTransfer [J] !Hourly
112,1,InteriorLights:Electricity [J] !Hourly
544,1,InteriorEquipment:Electricity [J] !Hourly
End of Data Dictionary
1,GUANGZHOU ANN HTG 99.6% CONDNS DB,  23.17, 113.33,   8.00,  41.00
2,1, 1,21, 0, 1, 0.00,60.00,WinterDesignDay
9,3.0
10,0.0
112,0.0
544,0.0
1093,0.0
1118,0.0
2,1, 1,21, 0, 2, 0.00,60.00,WinterDesignDay
9,3.0
10,0.0
112,0.0
544,0.0
1093,0.0
1118,0.0
2,1, 1,21, 0, 3, 0.00,60.00,WinterDesignDay
9,3.0
10,0.0
112,0.0
544,0.0
1093,0.0
1118,0.0
2,1, 1,21, 0, 4, 0.00,60.00,WinterDesignDay
9,3.0
10,0.0
112,0.0
544,0.0
1093,0.0
1118,0.0
2,1, 1,21, 0, 5, 0.00,60.00,WinterDesignDay
9,3.0
10,0.0
112,0.0
544,0.0
1093,0.0
1118,0.0
2,1, 1,21, 0, 6, 0.00,60.00,WinterDesignDay
9,3.0
10,0.0
112,0.0
544,0.0
1093,0.0
1118,0.0
2,1, 1,21, 0, 7, 0.00,60.00,WinterDesignDay
9,3.0
10,0.0
112,0.0
544,0.0
1093,126312053.04845006
1118,20019278.22227536
2,1, 1,21, 0, 8, 0.00,60.00,WinterDesignDay
9,3.0
10,0.0
112,0.0
544,0.0
1093,288086561.9561747
1118,1731699.2348341833
2,1, 1,21, 0, 9, 0.00,60.00,WinterDesignDay
9,3.0
10,0.0
112,0.0
544,0.0
1093,224672135.3174107
1118,0.0
2,1, 1,21, 0,10, 0.00,60.00,WinterDesignDay
9,3.0
10,0.0
112,0.0
544,0.0
1093,205439030.51475824
1118,0.0
2,1, 1,21, 0,11, 0.00,60.00,WinterDesignDay
9,3.0
10,0.0
112,0.0
544,0.0
1093,195116617.62840925
1118,0.0
2,1, 1,21, 0,12, 0.00,60.00,WinterDesignDay
9,3.0
10,0.0
112,0.0
544,0.0
1093,187633942.1901421
1118,0.0
2,1, 1,21, 0,13, 0.00,60.00,WinterDesignDay
9,3.0
10,0.0
112,0.0
544,0.0
1093,181750962.33089075
1118,0.0
2,1, 1,21, 0,14, 0.00,60.00,WinterDesignDay
9,3.0
10,0.0
112,0.0
544,0.0
1093,176749342.06585539
1118,0.0
2,1, 1,21, 0,15, 0.00,60.00,WinterDesignDay
9,3.0
10,0.0
112,0.0
544,0.0
1093,172466211.44400428
1118,0.0
2,1, 1,21, 0,16, 0.00,60.00,WinterDesignDay
9,3.0
10,0.0
112,0.0
544,0.0
1093,168560501.70551766
1118,0.0
2,1, 1,21, 0,17, 0.00,60.00,WinterDesignDay
9,3.0
10,0.0
112,0.0
544,0.0
1093,164883955.73992247
1118,0.0
2,1, 1,21, 0,18, 0.00,60.00,WinterDesignDay
9,3.0
10,0.0
112,0.0
544,0.0
1093,161866508.70277269
1118,0.0
2,1, 1,21, 0,19, 0.00,60.00,WinterDesignDay
9,3.0
10,0.0
112,0.0
544,0.0
1093,132365422.17068106
1118,2252837.5459916375
2,1, 1,21, 0,20, 0.00,60.00,WinterDesignDay
9,3.0
10,0.0
112,0.0
544,0.0
1093,114972482.61875254
1118,1168513.6853522938
2,1, 1,21, 0,21, 0.00,60.00,WinterDesignDay
9,3.0
10,0.0
112,0.0
544,0.0
1093,79570526.92693243
1118,1162599.9589567597
2,1, 1,21, 0,22, 0.00,60.00,WinterDesignDay
9,3.0
10,0.0
112,0.0
544,0.0
1093,126971036.20974672
1118,2324240.223937059
2,1, 1,21, 0,23, 0.00,60.00,WinterDesignDay
9,3.0
10,0.0
112,0.0
544,0.0
1093,3119785.004160058
1118,20436098.011827489
2,1, 1,21, 0,24, 0.00,60.00,WinterDesignDay
9,3.0
10,0.0
112,0.0
544,0.0
1093,0.0
1118,0.0
1,GUANGZHOU ANN HTG 99% CONDNS DB,  23.17, 113.33,   8.00,  41.00
2,1, 1,21, 0, 1, 0.00,60.00,WinterDesignDay
9,3.0
10,0.0
112,0.0
544,0.0
1093,0.0
1118,0.0
2,1, 1,21, 0, 2, 0.00,60.00,WinterDesignDay
9,3.0
10,0.0
112,0.0
544,0.0
1093,0.0
1118,0.0
2,1, 1,21, 0, 3, 0.00,60.00,WinterDesignDay
9,3.0
10,0.0
112,0.0
544,0.0
1093,0.0
1118,0.0
2,1, 1,21, 0, 4, 0.00,60.00,WinterDesignDay
9,3.0
10,0.0
112,0.0
544,0.0
1093,0.0
1118,0.0
2,1, 1,21, 0, 5, 0.00,60.00,WinterDesignDay
9,3.0
10,0.0
112,0.0
544,0.0
1093,0.0
1118,0.0
2,1, 1,21, 0, 6, 0.00,60.00,WinterDesignDay
9,3.0
10,0.0
112,0.0
544,0.0
1093,0.0
1118,0.0
2,1, 1,21, 0, 7, 0.00,60.00,WinterDesignDay
9,3.0
10,0.0
112,0.0
544,0.0
1093,113127312.17707245
1118,22115662.454734
2,1, 1,21, 0, 8, 0.00,60.00,WinterDesignDay
9,3.0
10,0.0
112,0.0
544,0.0
1093,273172271.4488605
1118,1719327.6952736215
2,1, 1,21, 0, 9, 0.00,60.00,WinterDesignDay
9,3.0
10,0.0
112,0.0
544,0.0
1093,210318715.84713013
1118,0.0
2,1, 1,21, 0,10, 0.00,60.00,WinterDesignDay
9,3.0
10,0.0
112,0.0
544,0.0
1093,192271485.48608724
1118,0.0
2,1, 1,21, 0,11, 0.00,60.00,WinterDesignDay
9,3.0
10,0.0
112,0.0
544,0.0
1093,182609289.00582467
1118,0.0
2,1, 1,21, 0,12, 0.00,60.00,WinterDesignDay
9,3.0
10,0.0
112,0.0
544,0.0
1093,175615915.07794617
1118,0.0
2,1, 1,21, 0,13, 0.00,60.00,WinterDesignDay
9,3.0
10,0.0
112,0.0
544,0.0
1093,170120796.99847458
1118,0.0
2,1, 1,21, 0,14, 0.00,60.00,WinterDesignDay
9,3.0
10,0.0
112,0.0
544,0.0
1093,165491111.8829128
1118,0.0
2,1, 1,21, 0,15, 0.00,60.00,WinterDesignDay
9,3.0
10,0.0
112,0.0
544,0.0
1093,161482799.25893239
1118,0.0
2,1, 1,21, 0,16, 0.00,60.00,WinterDesignDay
9,3.0
10,0.0
112,0.0
544,0.0
1093,157840070.01459898
1118,0.0
2,1, 1,21, 0,17, 0.00,60.00,WinterDesignDay
9,3.0
10,0.0
112,0.0
544,0.0
1093,154400568.14645422
1118,0.0
2,1, 1,21, 0,18, 0.00,60.00,WinterDesignDay
9,3.0
10,0.0
112,0.0
544,0.0
1093,151595900.16780574
1118,0.0
2,1, 1,21, 0,19, 0.00,60.00,WinterDesignDay
9,3.0
10,0.0
112,0.0
544,0.0
1093,122487279.8373349
1118,2533332.835004333
2,1, 1,21, 0,20, 0.00,60.00,WinterDesignDay
9,3.0
10,0.0
112,0.0
544,0.0
1093,116864600.42109269
1118,1720257.1574799317
2,1, 1,21, 0,21, 0.00,60.00,WinterDesignDay
9,3.0
10,0.0
112,0.0
544,0.0
1093,74456002.44182572
1118,1168157.9579248473
2,1, 1,21, 0,22, 0.00,60.00,WinterDesignDay
9,3.0
10,0.0
112,0.0
544,0.0
1093,118563281.12363568
1118,2313901.3916044917
2,1, 1,21, 0,23, 0.00,60.00,WinterDesignDay
9,3.0
10,0.0
112,0.0
544,0.0
1093,2917522.7109824225
1118,20689053.147629415
2,1, 1,21, 0,24, 0.00,60.00,WinterDesignDay
9,3.0
10,0.0
112,0.0
544,0.0
1093,0.0
1118,0.0
1,GUANGZHOU ANN HUM_N 99.6% CONDNS DP=>MCDB,  23.17, 113.33,   8.00,  41.00
2,1, 1,21, 0, 1, 0.00,60.00,WinterDesignDay
9,3.0
10,0.0
112,0.0
544,0.0
1093,0.0
1118,0.0
2,1, 1,21, 0, 2, 0.00,60.00,WinterDesignDay
9,3.0
10,0.0
112,0.0
544,0.0
1093,0.0
1118,0.0
2,1, 1,21, 0, 3, 0.00,60.00,WinterDesignDay
9,3.0
10,0.0
112,0.0
544,0.0
1093,0.0
1118,0.0
2,1, 1,21, 0, 4, 0.00,60.00,WinterDesignDay
9,3.0
10,0.0
112,0.0
544,0.0
1093,0.0
1118,0.0
2,1, 1,21, 0, 5, 0.00,60.00,WinterDesignDay
9,3.0
10,0.0
112,0.0
544,0.0
1093,0.0
1118,0.0
2,1, 1,21, 0, 6, 0.00,60.00,WinterDesignDay
9,3.0
10,0.0
112,0.0
544,0.0
1093,0.0
1118,0.0
2,1, 1,21, 0, 7, 0.00,60.00,WinterDesignDay
9,3.0
10,0.0
112,0.0
544,0.0
1093,60210987.22107291
1118,30930286.25413217
2,1, 1,21, 0, 8, 0.00,60.00,WinterDesignDay
9,3.0
10,0.0
112,0.0
544,0.0
1093,221422703.79671366
1118,2248898.410530809
2,1, 1,21, 0, 9, 0.00,60.00,WinterDesignDay
9,3.0
10,0.0
112,0.0
544,0.0
1093,165209445.4054723
1118,0.0
2,1, 1,21, 0,10, 0.00,60.00,WinterDesignDay
9,3.0
10,0.0
112,0.0
544,0.0
1093,150628572.00659529
1118,0.0
2,1, 1,21, 0,11, 0.00,60.00,WinterDesignDay
9,3.0
10,0.0
112,0.0
544,0.0
1093,142981907.0639159
1118,0.0
2,1, 1,21, 0,12, 0.00,60.00,WinterDesignDay
9,3.0
10,0.0
112,0.0
544,0.0
1093,137494467.75349713
1118,0.0
2,1, 1,21, 0,13, 0.00,60.00,WinterDesignDay
9,3.0
10,0.0
112,0.0
544,0.0
1093,133323400.81026164
1118,0.0
2,1, 1,21, 0,14, 0.00,60.00,WinterDesignDay
9,3.0
10,0.0
112,0.0
544,0.0
1093,129772248.2375175
1118,0.0
2,1, 1,21, 0,15, 0.00,60.00,WinterDesignDay
9,3.0
10,0.0
112,0.0
544,0.0
1093,126708846.04504556
1118,0.0
2,1, 1,21, 0,16, 0.00,60.00,WinterDesignDay
9,3.0
10,0.0
112,0.0
544,0.0
1093,123928508.52556652
1118,0.0
2,1, 1,21, 0,17, 0.00,60.00,WinterDesignDay
9,3.0
10,0.0
112,0.0
544,0.0
1093,121263982.83467803
1118,0.0
2,1, 1,21, 0,18, 0.00,60.00,WinterDesignDay
9,3.0
10,0.0
112,0.0
544,0.0
1093,119155534.94784808
1118,0.0
2,1, 1,21, 0,19, 0.00,60.00,WinterDesignDay
9,3.0
10,0.0
112,0.0
544,0.0
1093,101472955.13806676
1118,4317748.248284989
2,1, 1,21, 0,20, 0.00,60.00,WinterDesignDay
9,3.0
10,0.0
112,0.0
544,0.0
1093,78018932.07175753
1118,52512.879613131736
2,1, 1,21, 0,21, 0.00,60.00,WinterDesignDay
9,3.0
10,0.0
112,0.0
544,0.0
1093,54641798.71822177
1118,62476.663251537684
2,1, 1,21, 0,22, 0.00,60.00,WinterDesignDay
9,3.0
10,0.0
112,0.0
544,0.0
1093,86850986.97613797
1118,130590.79786521377
2,1, 1,21, 0,23, 0.00,60.00,WinterDesignDay
9,3.0
10,0.0
112,0.0
544,0.0
1093,2452998.095665002
1118,23060992.45779364
2,1, 1,21, 0,24, 0.00,60.00,WinterDesignDay
9,3.0
10,0.0
112,0.0
544,0.0
1093,0.0
1118,0.0
1,GUANGZHOU ANN HUM_N 99% CONDNS DP=>MCDB,  23.17, 113.33,   8.00,  41.00
2,1, 1,21, 0, 1, 0.00,60.00,WinterDesignDay
9,3.0
10,0.0
112,0.0
544,0.0
1093,0.0
1118,0.0
2,1, 1,21, 0, 2, 0.00,60.00,WinterDesignDay
9,3.0
10,0.0
112,0.0
544,0.0
1093,0.0
1118,0.0
2,1, 1,21, 0, 3, 0.00,60.00,WinterDesignDay
9,3.0
10,0.0
112,0.0
544,0.0
1093,0.0
1118,0.0
2,1, 1,21, 0, 4, 0.00,60.00,WinterDesignDay
9,3.0
10,0.0
112,0.0
544,0.0
1093,0.0
1118,0.0
2,1, 1,21, 0, 5, 0.00,60.00,WinterDesignDay
9,3.0
10,0.0
112,0.0
544,0.0
1093,0.0
1118,0.0
2,1, 1,21, 0, 6, 0.00,60.00,WinterDesignDay
9,3.0
10,0.0
112,0.0
544,0.0
1093,0.0
1118,0.0
2,1, 1,21, 0, 7, 0.00,60.00,WinterDesignDay
9,3.0
10,0.0
112,0.0
544,0.0
1093,55661161.33714972
1118,32549133.958144245
2,1, 1,21, 0, 8, 0.00,60.00,WinterDesignDay
9,3.0
10,0.0
112,0.0
544,0.0
1093,214479395.498939
1118,2288820.1616923979
2,1, 1,21, 0, 9, 0.00,60.00,WinterDesignDay
9,3.0
10,0.0
112,0.0
544,0.0
1093,159147053.30596597
1118,0.0
2,1, 1,21, 0,10, 0.00,60.00,WinterDesignDay
9,3.0
10,0.0
112,0.0
544,0.0
1093,145025362.62465985
1118,0.0
2,1, 1,21, 0,11, 0.00,60.00,WinterDesignDay
9,3.0
10,0.0
112,0.0
544,0.0
1093,137647516.91521175
1118,0.0
2,1, 1,21, 0,12, 0.00,60.00,WinterDesignDay
9,3.0
10,0.0
112,0.0
544,0.0
1093,132358437.07721448
1118,0.0
2,1, 1,21, 0,13, 0.00,60.00,WinterDesignDay
9,3.0
10,0.0
112,0.0
544,0.0
1093,128350276.40331988
1118,0.0
2,1, 1,21, 0,14, 0.00,60.00,WinterDesignDay
9,3.0
10,0.0
112,0.0
544,0.0
1093,124939455.91772111
1118,0.0
2,1, 1,21, 0,15, 0.00,60.00,WinterDesignDay
9,3.0
10,0.0
112,0.0
544,0.0
1093,122000968.32368094
1118,0.0
2,1, 1,21, 0,16, 0.00,60.00,WinterDesignDay
9,3.0
10,0.0
112,0.0
544,0.0
1093,119331799.92365949
1118,0.0
2,1, 1,21, 0,17, 0.00,60.00,WinterDesignDay
9,3.0
10,0.0
112,0.0
544,0.0
1093,116766606.0822335
1118,0.0
2,1, 1,21, 0,18, 0.00,60.00,WinterDesignDay
9,3.0
10,0.0
112,0.0
544,0.0
1093,114747248.31839609
1118,0.0
2,1, 1,21, 0,19, 0.00,60.00,WinterDesignDay
9,3.0
10,0.0
112,0.0
544,0.0
1093,98261354.40810395
1118,4315213.66233346
2,1, 1,21, 0,20, 0.00,60.00,WinterDesignDay
9,3.0
10,0.0
112,0.0
544,0.0
1093,74732281.2768623
1118,51578.54994123227
2,1, 1,21, 0,21, 0.00,60.00,WinterDesignDay
9,3.0
10,0.0
112,0.0
544,0.0
1093,52417041.21666105
1118,61397.69984181985
2,1, 1,21, 0,22, 0.00,60.00,WinterDesignDay
9,3.0
10,0.0
112,0.0
544,0.0
1093,83305948.48304151
1118,127821.81995729843
2,1, 1,21, 0,23, 0.00,60.00,WinterDesignDay
9,3.0
10,0.0
112,0.0
544,0.0
1093,2336114.88337633
1118,23642552.575083708
2,1, 1,21, 0,24, 0.00,60.00,WinterDesignDay
9,3.0
10,0.0
112,0.0
544,0.0
1093,0.0
1118,0.0
1,GUANGZHOU ANN HTG WIND 99.6% CONDNS WS=>MCDB,  23.17, 113.33,   8.00,  41.00
2,1, 1,21, 0, 1, 0.00,60.00,WinterDesignDay
9,7.6
10,0.0
112,0.0
544,0.0
1093,0.0
1118,0.0
2,1, 1,21, 0, 2, 0.00,60.00,WinterDesignDay
9,7.6
10,0.0
112,0.0
544,0.0
1093,0.0
1118,0.0
2,1, 1,21, 0, 3, 0.00,60.00,WinterDesignDay
9,7.6
10,0.0
112,0.0
544,0.0
1093,0.0
1118,0.0
2,1, 1,21, 0, 4, 0.00,60.00,WinterDesignDay
9,7.6
10,0.0
112,0.0
544,0.0
1093,0.0
1118,0.0
2,1, 1,21, 0, 5, 0.00,60.00,WinterDesignDay
9,7.6
10,0.0
112,0.0
544,0.0
1093,0.0
1118,0.0
2,1, 1,21, 0, 6, 0.00,60.00,WinterDesignDay
9,7.6
10,0.0
112,0.0
544,0.0
1093,0.0
1118,0.0
2,1, 1,21, 0, 7, 0.00,60.00,WinterDesignDay
9,7.6
10,0.0
112,0.0
544,0.0
1093,57995941.070617739
1118,31633295.629830313
2,1, 1,21, 0, 8, 0.00,60.00,WinterDesignDay
9,7.6
10,0.0
112,0.0
544,0.0
1093,216871889.25998564
1118,2200809.4431306088
2,1, 1,21, 0, 9, 0.00,60.00,WinterDesignDay
9,7.6
10,0.0
112,0.0
544,0.0
1093,160939984.64396698
1118,0.0
2,1, 1,21, 0,10, 0.00,60.00,WinterDesignDay
9,7.6
10,0.0
112,0.0
544,0.0
1093,146396392.52416478
1118,0.0
2,1, 1,21, 0,11, 0.00,60.00,WinterDesignDay
9,7.6
10,0.0
112,0.0
544,0.0
1093,138729438.35947628
1118,0.0
2,1, 1,21, 0,12, 0.00,60.00,WinterDesignDay
9,7.6
10,0.0
112,0.0
544,0.0
1093,133201442.16232066
1118,0.0
2,1, 1,21, 0,13, 0.00,60.00,WinterDesignDay
9,7.6
10,0.0
112,0.0
544,0.0
1093,128983081.55092697
1118,0.0
2,1, 1,21, 0,14, 0.00,60.00,WinterDesignDay
9,7.6
10,0.0
112,0.0
544,0.0
1093,125383005.56248719
1118,0.0
2,1, 1,21, 0,15, 0.00,60.00,WinterDesignDay
9,7.6
10,0.0
112,0.0
544,0.0
1093,122270289.37513112
1118,0.0
2,1, 1,21, 0,16, 0.00,60.00,WinterDesignDay
9,7.6
10,0.0
112,0.0
544,0.0
1093,119441774.32233536
1118,0.0
2,1, 1,21, 0,17, 0.00,60.00,WinterDesignDay
9,7.6
10,0.0
112,0.0
544,0.0
1093,116730683.16335784
1118,0.0
2,1, 1,21, 0,18, 0.00,60.00,WinterDesignDay
9,7.6
10,0.0
112,0.0
544,0.0
1093,114577520.40313334
1118,0.0
2,1, 1,21, 0,19, 0.00,60.00,WinterDesignDay
9,7.6
10,0.0
112,0.0
544,0.0
1093,102933847.4550147
1118,4928499.25812479
2,1, 1,21, 0,20, 0.00,60.00,WinterDesignDay
9,7.6
10,0.0
112,0.0
544,0.0
1093,83824523.44077814
1118,43468.21649464418
2,1, 1,21, 0,21, 0.00,60.00,WinterDesignDay
9,7.6
10,0.0
112,0.0
544,0.0
1093,58951451.4454282
1118,55155.222033802056
2,1, 1,21, 0,22, 0.00,60.00,WinterDesignDay
9,7.6
10,0.0
112,0.0
544,0.0
1093,94652723.92392585
1118,116457.40975165808
2,1, 1,21, 0,23, 0.00,60.00,WinterDesignDay
9,7.6
10,0.0
112,0.0
544,0.0
1093,2262162.6876151359
1118,23662066.026299389
2,1, 1,21, 0,24, 0.00,60.00,WinterDesignDay
9,7.6
10,0.0
112,0.0
544,0.0
1093,0.0
1118,0.0
1,GUANGZHOU ANN HTG WIND 99% CONDNS WS=>MCDB,  23.17, 113.33,   8.00,  41.00
2,1, 1,21, 0, 1, 0.00,60.00,WinterDesignDay
9,6.7
10,0.0
112,0.0
544,0.0
1093,0.0
1118,0.0
2,1, 1,21, 0, 2, 0.00,60.00,WinterDesignDay
9,6.7
10,0.0
112,0.0
544,0.0
1093,0.0
1118,0.0
2,1, 1,21, 0, 3, 0.00,60.00,WinterDesignDay
9,6.7
10,0.0
112,0.0
544,0.0
1093,0.0
1118,0.0
2,1, 1,21, 0, 4, 0.00,60.00,WinterDesignDay
9,6.7
10,0.0
112,0.0
544,0.0
1093,0.0
1118,0.0
2,1, 1,21, 0, 5, 0.00,60.00,WinterDesignDay
9,6.7
10,0.0
112,0.0
544,0.0
1093,0.0
1118,0.0
2,1, 1,21, 0, 6, 0.00,60.00,WinterDesignDay
9,6.7
10,0.0
112,0.0
544,0.0
1093,0.0
1118,0.0
2,1, 1,21, 0, 7, 0.00,60.00,WinterDesignDay
9,6.7
10,0.0
112,0.0
544,0.0
1093,60244828.393040169
1118,30561063.589053144
2,1, 1,21, 0, 8, 0.00,60.00,WinterDesignDay
9,6.7
10,0.0
112,0.0
544,0.0
1093,220608975.61943145
1118,2197737.8108465808
2,1, 1,21, 0, 9, 0.00,60.00,WinterDesignDay
9,6.7
10,0.0
112,0.0
544,0.0
1093,164208505.9785191
1118,0.0
2,1, 1,21, 0,10, 0.00,60.00,WinterDesignDay
9,6.7
10,0.0
112,0.0
544,0.0
1093,149449429.2225861
1118,0.0
2,1, 1,21, 0,11, 0.00,60.00,WinterDesignDay
9,6.7
10,0.0
112,0.0
544,0.0
1093,141661459.11731569
1118,0.0
2,1, 1,21, 0,12, 0.00,60.00,WinterDesignDay
9,6.7
10,0.0
112,0.0
544,0.0
1093,136047030.77129445
1118,0.0
2,1, 1,21, 0,13, 0.00,60.00,WinterDesignDay
9,6.7
10,0.0
112,0.0
544,0.0
1093,131759171.57140833
1118,0.0
2,1, 1,21, 0,14, 0.00,60.00,WinterDesignDay
9,6.7
10,0.0
112,0.0
544,0.0
1093,128100084.48837136
1118,0.0
2,1, 1,21, 0,15, 0.00,60.00,WinterDesignDay
9,6.7
10,0.0
112,0.0
544,0.0
1093,124935489.389902
1118,0.0
2,1, 1,21, 0,16, 0.00,60.00,WinterDesignDay
9,6.7
10,0.0
112,0.0
544,0.0
1093,122061331.77655688
1118,0.0
2,1, 1,21, 0,17, 0.00,60.00,WinterDesignDay
9,6.7
10,0.0
112,0.0
544,0.0
1093,119309906.63626501
1118,0.0
2,1, 1,21, 0,18, 0.00,60.00,WinterDesignDay
9,6.7
10,0.0
112,0.0
544,0.0
1093,117120950.14502436
1118,0.0
2,1, 1,21, 0,19, 0.00,60.00,WinterDesignDay
9,6.7
10,0.0
112,0.0
544,0.0
1093,103748279.8400102
1118,5033350.796698257
2,1, 1,21, 0,20, 0.00,60.00,WinterDesignDay
9,6.7
10,0.0
112,0.0
544,0.0
1093,84367520.46203973
1118,44439.384308260735
2,1, 1,21, 0,21, 0.00,60.00,WinterDesignDay
9,6.7
10,0.0
112,0.0
544,0.0
1093,59256471.300088997
1118,56237.83099636002
2,1, 1,21, 0,22, 0.00,60.00,WinterDesignDay
9,6.7
10,0.0
112,0.0
544,0.0
1093,95090093.80883438
1118,118759.27896371213
2,1, 1,21, 0,23, 0.00,60.00,WinterDesignDay
9,6.7
10,0.0
112,0.0
544,0.0
1093,2302273.8216939
1118,23180323.19177303
2,1, 1,21, 0,24, 0.00,60.00,WinterDesignDay
9,6.7
10,0.0
112,0.0
544,0.0
1093,0.0
1118,0.0
1,GUANGZHOU ANN CLG .4% CONDNS DB=>MWB,  23.17, 113.33,   8.00,  41.00
2,1, 7,21, 0, 1, 0.00,60.00,SummerDesignDay
9,2.4
10,0.0
112,152517470.7542746
544,224813060.55296705
1093,1893050.7541465876
1118,219695329.40928985
2,1, 7,21, 0, 2, 0.00,60.00,SummerDesignDay
9,2.4
10,0.0
112,152517470.7542746
544,224813060.55296705
1093,1193339.925626008
1118,223837189.77102817
2,1, 7,21, 0, 3, 0.00,60.00,SummerDesignDay
9,2.4
10,0.0
112,152517470.7542746
544,224813060.55296705
1093,1212557.660871366
1118,155529500.31080879
2,1, 7,21, 0, 4, 0.00,60.00,SummerDesignDay
9,2.4
10,0.0
112,152517470.7542746
544,224813060.55296705
1093,2326667.809028264
1118,242027594.51249043
2,1, 7,21, 0, 5, 0.00,60.00,SummerDesignDay
9,2.4
10,0.0
112,152517470.7542746
544,224813060.55296705
1093,1151592.9042413075
1118,231871721.27378948
2,1, 7,21, 0, 6, 0.00,60.00,SummerDesignDay
9,2.4
10,0.0145891147909559
112,152517470.7542746
544,224813060.55296705
1093,1267777.6793105957
1118,196514145.6001519
2,1, 7,21, 0, 7, 0.00,60.00,SummerDesignDay
9,2.4
10,56.34860986772071
112,131886500.00307139
544,224813060.55296705
1093,763087.6600394545
1118,490262876.56751796
2,1, 7,21, 0, 8, 0.00,60.00,SummerDesignDay
9,2.4
10,231.85959147294114
112,119991185.40467142
544,224813060.55296705
1093,0.0
1118,648659871.560386
2,1, 7,21, 0, 9, 0.00,60.00,SummerDesignDay
9,2.4
10,375.607302565397
112,119991185.40467142
544,224813060.55296705
1093,0.0
1118,650472374.8190026
2,1, 7,21, 0,10, 0.00,60.00,SummerDesignDay
9,2.4
10,470.73042604296429
112,119991185.40467142
544,224813060.55296705
1093,0.0
1118,669554131.5257899
2,1, 7,21, 0,11, 0.00,60.00,SummerDesignDay
9,2.4
10,529.8608859013466
112,119991185.40467142
544,224813060.55296705
1093,0.0
1118,677032530.942424
2,1, 7,21, 0,12, 0.00,60.00,SummerDesignDay
9,2.4
10,561.7438609980454
112,119991185.40467142
544,224813060.55296705
1093,0.0
1118,672047468.0629921
2,1, 7,21, 0,13, 0.00,60.00,SummerDesignDay
9,2.4
10,570.8458267551066
112,119991185.40467142
544,224813060.55296705
1093,0.0
1118,664038895.6738786
2,1, 7,21, 0,14, 0.00,60.00,SummerDesignDay
9,2.4
10,558.4131747035665
112,119991185.40467142
544,224813060.55296705
1093,0.0
1118,674868311.0020208
2,1, 7,21, 0,15, 0.00,60.00,SummerDesignDay
9,2.4
10,522.7428547735229
112,119991185.40467142
544,224813060.55296705
1093,0.0
1118,687549167.8505787
2,1, 7,21, 0,16, 0.00,60.00,SummerDesignDay
9,2.4
10,458.79708920135365
112,119991185.40467142
544,224813060.55296705
1093,0.0
1118,690654626.3725233
2,1, 7,21, 0,17, 0.00,60.00,SummerDesignDay
9,2.4
10,357.08032063725866
112,119991185.40467142
544,224813060.55296705
1093,0.0
1118,673934807.514224
2,1, 7,21, 0,18, 0.00,60.00,SummerDesignDay
9,2.4
10,205.1994120596819
112,120131322.63904399
544,224813060.55296705
1093,0.0
1118,630697154.2868215
2,1, 7,21, 0,19, 0.00,60.00,SummerDesignDay
9,2.4
10,36.8684596217668
112,136951668.73134173
544,224813060.55296705
1093,0.0
1118,570060101.3086324
2,1, 7,21, 0,20, 0.00,60.00,SummerDesignDay
9,2.4
10,0.0
112,152517470.7542746
544,224813060.55296705
1093,0.0
1118,534023807.4176022
2,1, 7,21, 0,21, 0.00,60.00,SummerDesignDay
9,2.4
10,0.0
112,152517470.7542746
544,224813060.55296705
1093,0.0
1118,513824737.4457526
2,1, 7,21, 0,22, 0.00,60.00,SummerDesignDay
9,2.4
10,0.0
112,152517470.7542746
544,224813060.55296705
1093,0.0
1118,499163825.0611425
2,1, 7,21, 0,23, 0.00,60.00,SummerDesignDay
9,2.4
10,0.0
112,152517470.7542746
544,224813060.55296705
1093,3176840.443380799
1118,150570708.53656454
2,1, 7,21, 0,24, 0.00,60.00,SummerDesignDay
9,2.4
10,0.0
112,152517470.7542746
544,224813060.55296705
1093,2354193.214302466
1118,161062025.86473147
1,GUANGZHOU ANN CLG 1% CONDNS DB=>MWB,  23.17, 113.33,   8.00,  41.00
2,1, 7,21, 0, 1, 0.00,60.00,SummerDesignDay
9,2.4
10,0.0
112,152517470.7542746
544,224813060.55296705
1093,1777047.3938970753
1118,216202322.55470867
2,1, 7,21, 0, 2, 0.00,60.00,SummerDesignDay
9,2.4
10,0.0
112,152517470.7542746
544,224813060.55296705
1093,1204858.1602205989
1118,222253048.21131198
2,1, 7,21, 0, 3, 0.00,60.00,SummerDesignDay
9,2.4
10,0.0
112,152517470.7542746
544,224813060.55296705
1093,1220036.7609288269
1118,154132660.1927808
2,1, 7,21, 0, 4, 0.00,60.00,SummerDesignDay
9,2.4
10,0.0
112,152517470.7542746
544,224813060.55296705
1093,2366899.6744517695
1118,239925623.1026833
2,1, 7,21, 0, 5, 0.00,60.00,SummerDesignDay
9,2.4
10,0.0
112,152517470.7542746
544,224813060.55296705
1093,1167060.8653872745
1118,230038518.58681727
2,1, 7,21, 0, 6, 0.00,60.00,SummerDesignDay
9,2.4
10,0.0145891147909559
112,152517470.7542746
544,224813060.55296705
1093,1324292.3050549383
1118,193630355.96712543
2,1, 7,21, 0, 7, 0.00,60.00,SummerDesignDay
9,2.4
10,56.34860986772071
112,131886500.00307139
544,224813060.55296705
1093,825354.1065630515
1118,480700060.48578837
2,1, 7,21, 0, 8, 0.00,60.00,SummerDesignDay
9,2.4
10,231.85959147294114
112,119991185.40467142
544,224813060.55296705
1093,0.0
1118,637647388.0975907
2,1, 7,21, 0, 9, 0.00,60.00,SummerDesignDay
9,2.4
10,375.607302565397
112,119991185.40467142
544,224813060.55296705
1093,0.0
1118,640348916.6060984
2,1, 7,21, 0,10, 0.00,60.00,SummerDesignDay
9,2.4
10,470.73042604296429
112,119991185.40467142
544,224813060.55296705
1093,0.0
1118,659983933.179098
2,1, 7,21, 0,11, 0.00,60.00,SummerDesignDay
9,2.4
10,529.8608859013466
112,119991185.40467142
544,224813060.55296705
1093,0.0
1118,667843071.0881306
2,1, 7,21, 0,12, 0.00,60.00,SummerDesignDay
9,2.4
10,561.7438609980454
112,119991185.40467142
544,224813060.55296705
1093,0.0
1118,663202831.6037045
2,1, 7,21, 0,13, 0.00,60.00,SummerDesignDay
9,2.4
10,570.8458267551066
112,119991185.40467142
544,224813060.55296705
1093,0.0
1118,655505579.3474574
2,1, 7,21, 0,14, 0.00,60.00,SummerDesignDay
9,2.4
10,558.4131747035665
112,119991185.40467142
544,224813060.55296705
1093,0.0
1118,666506478.5488837
2,1, 7,21, 0,15, 0.00,60.00,SummerDesignDay
9,2.4
10,522.7428547735229
112,119991185.40467142
544,224813060.55296705
1093,0.0
1118,679358593.812669
2,1, 7,21, 0,16, 0.00,60.00,SummerDesignDay
9,2.4
10,458.79708920135365
112,119991185.40467142
544,224813060.55296705
1093,0.0
1118,682659329.4756147
2,1, 7,21, 0,17, 0.00,60.00,SummerDesignDay
9,2.4
10,357.08032063725866
112,119991185.40467142
544,224813060.55296705
1093,0.0
1118,666195934.2055869
2,1, 7,21, 0,18, 0.00,60.00,SummerDesignDay
9,2.4
10,205.1994120596819
112,120131322.63904399
544,224813060.55296705
1093,0.0
1118,623242461.127903
2,1, 7,21, 0,19, 0.00,60.00,SummerDesignDay
9,2.4
10,36.8684596217668
112,136951668.73134173
544,224813060.55296705
1093,0.0
1118,562982427.0118022
2,1, 7,21, 0,20, 0.00,60.00,SummerDesignDay
9,2.4
10,0.0
112,152517470.7542746
544,224813060.55296705
1093,0.0
1118,527102969.3698111
2,1, 7,21, 0,21, 0.00,60.00,SummerDesignDay
9,2.4
10,0.0
112,152517470.7542746
544,224813060.55296705
1093,0.0
1118,507022447.21022936
2,1, 7,21, 0,22, 0.00,60.00,SummerDesignDay
9,2.4
10,0.0
112,152517470.7542746
544,224813060.55296705
1093,0.0
1118,492465051.41999956
2,1, 7,21, 0,23, 0.00,60.00,SummerDesignDay
9,2.4
10,0.0
112,152517470.7542746
544,224813060.55296705
1093,3513544.5508759014
1118,147284035.85568799
2,1, 7,21, 0,24, 0.00,60.00,SummerDesignDay
9,2.4
10,0.0
112,152517470.7542746
544,224813060.55296705
1093,1996730.7953728256
1118,168205497.3316656
1,GUANGZHOU ANN CLG 2% CONDNS DB=>MWB,  23.17, 113.33,   8.00,  41.00
2,1, 7,21, 0, 1, 0.00,60.00,SummerDesignDay
9,2.4
10,0.0
112,152517470.7542746
544,224813060.55296705
1093,1925079.7907378074
1118,217720917.16164977
2,1, 7,21, 0, 2, 0.00,60.00,SummerDesignDay
9,2.4
10,0.0
112,152517470.7542746
544,224813060.55296705
1093,1208348.6687625354
1118,221544889.67662198
2,1, 7,21, 0, 3, 0.00,60.00,SummerDesignDay
9,2.4
10,0.0
112,152517470.7542746
544,224813060.55296705
1093,1219370.2090650718
1118,153348799.6669733
2,1, 7,21, 0, 4, 0.00,60.00,SummerDesignDay
9,2.4
10,0.0
112,152517470.7542746
544,224813060.55296705
1093,2846440.7406817779
1118,235579940.8051182
2,1, 7,21, 0, 5, 0.00,60.00,SummerDesignDay
9,2.4
10,0.0
112,152517470.7542746
544,224813060.55296705
1093,1386240.7630671086
1118,227821196.80504746
2,1, 7,21, 0, 6, 0.00,60.00,SummerDesignDay
9,2.4
10,0.0145891147909559
112,152517470.7542746
544,224813060.55296705
1093,1720483.124449253
1118,186206633.08556725
2,1, 7,21, 0, 7, 0.00,60.00,SummerDesignDay
9,2.4
10,56.34860986772071
112,131886500.00307139
544,224813060.55296705
1093,886118.3228658119
1118,454771650.1896316
2,1, 7,21, 0, 8, 0.00,60.00,SummerDesignDay
9,2.4
10,231.85959147294114
112,119991185.40467142
544,224813060.55296705
1093,0.0
1118,630480012.7703656
2,1, 7,21, 0, 9, 0.00,60.00,SummerDesignDay
9,2.4
10,375.607302565397
112,119991185.40467142
544,224813060.55296705
1093,0.0
1118,635057058.9310691
2,1, 7,21, 0,10, 0.00,60.00,SummerDesignDay
9,2.4
10,470.73042604296429
112,119991185.40467142
544,224813060.55296705
1093,0.0
1118,654076230.682571
2,1, 7,21, 0,11, 0.00,60.00,SummerDesignDay
9,2.4
10,529.8608859013466
112,119991185.40467142
544,224813060.55296705
1093,0.0
1118,661787560.0961344
2,1, 7,21, 0,12, 0.00,60.00,SummerDesignDay
9,2.4
10,561.7438609980454
112,119991185.40467142
544,224813060.55296705
1093,0.0
1118,657123292.1702576
2,1, 7,21, 0,13, 0.00,60.00,SummerDesignDay
9,2.4
10,570.8458267551066
112,119991185.40467142
544,224813060.55296705
1093,0.0
1118,649433431.7996378
2,1, 7,21, 0,14, 0.00,60.00,SummerDesignDay
9,2.4
10,558.4131747035665
112,119991185.40467142
544,224813060.55296705
1093,0.0
1118,660356887.0007422
2,1, 7,21, 0,15, 0.00,60.00,SummerDesignDay
9,2.4
10,522.7428547735229
112,119991185.40467142
544,224813060.55296705
1093,0.0
1118,673156712.5367658
2,1, 7,21, 0,16, 0.00,60.00,SummerDesignDay
9,2.4
10,458.79708920135365
112,119991185.40467142
544,224813060.55296705
1093,0.0
1118,676452014.6909751
2,1, 7,21, 0,17, 0.00,60.00,SummerDesignDay
9,2.4
10,357.08032063725866
112,119991185.40467142
544,224813060.55296705
1093,0.0
1118,660053090.7839443
2,1, 7,21, 0,18, 0.00,60.00,SummerDesignDay
9,2.4
10,205.1994120596819
112,120131322.63904399
544,224813060.55296705
1093,0.0
1118,617236009.4139046
2,1, 7,21, 0,19, 0.00,60.00,SummerDesignDay
9,2.4
10,36.8684596217668
112,136951668.73134173
544,224813060.55296705
1093,0.0
1118,557177515.2889737
2,1, 7,21, 0,20, 0.00,60.00,SummerDesignDay
9,2.4
10,0.0
112,152517470.7542746
544,224813060.55296705
1093,0.0
1118,521332885.8495681
2,1, 7,21, 0,21, 0.00,60.00,SummerDesignDay
9,2.4
10,0.0
112,152517470.7542746
544,224813060.55296705
1093,0.0
1118,501276787.52792689
2,1, 7,21, 0,22, 0.00,60.00,SummerDesignDay
9,2.4
10,0.0
112,152517470.7542746
544,224813060.55296705
1093,0.0
1118,486709260.4406626
2,1, 7,21, 0,23, 0.00,60.00,SummerDesignDay
9,2.4
10,0.0
112,152517470.7542746
544,224813060.55296705
1093,4047728.126368927
1118,125976753.8019062
2,1, 7,21, 0,24, 0.00,60.00,SummerDesignDay
9,2.4
10,0.0
112,152517470.7542746
544,224813060.55296705
1093,2492916.393956993
1118,160370524.41185058
1,GUANGZHOU ANN CLG .4% CONDNS WB=>MDB,  23.17, 113.33,   8.00,  41.00
2,1, 7,21, 0, 1, 0.00,60.00,SummerDesignDay
9,2.4
10,0.0
112,152517470.7542746
544,224813060.55296705
1093,2219595.074348652
1118,190278967.3846858
2,1, 7,21, 0, 2, 0.00,60.00,SummerDesignDay
9,2.4
10,0.0
112,152517470.7542746
544,224813060.55296705
1093,1752805.583660359
1118,223420988.22031666
2,1, 7,21, 0, 3, 0.00,60.00,SummerDesignDay
9,2.4
10,0.0
112,152517470.7542746
544,224813060.55296705
1093,1556401.0369602638
1118,175989798.40816994
2,1, 7,21, 0, 4, 0.00,60.00,SummerDesignDay
9,2.4
10,0.0
112,152517470.7542746
544,224813060.55296705
1093,2616837.848157826
1118,215350796.70982648
2,1, 7,21, 0, 5, 0.00,60.00,SummerDesignDay
9,2.4
10,0.0
112,152517470.7542746
544,224813060.55296705
1093,1625460.052640531
1118,233074271.13905625
2,1, 7,21, 0, 6, 0.00,60.00,SummerDesignDay
9,2.4
10,0.0145891147909559
112,152517470.7542746
544,224813060.55296705
1093,1921099.0316486364
1118,206986277.5871911
2,1, 7,21, 0, 7, 0.00,60.00,SummerDesignDay
9,2.4
10,56.34860986772071
112,131886500.00307139
544,224813060.55296705
1093,890864.4544175621
1118,357853326.1615292
2,1, 7,21, 0, 8, 0.00,60.00,SummerDesignDay
9,2.4
10,231.85959147294114
112,119991185.40467142
544,224813060.55296705
1093,0.0
1118,424671788.2776652
2,1, 7,21, 0, 9, 0.00,60.00,SummerDesignDay
9,2.4
10,375.607302565397
112,119991185.40467142
544,224813060.55296705
1093,602020.3572667255
1118,523809492.95631226
2,1, 7,21, 0,10, 0.00,60.00,SummerDesignDay
9,2.4
10,470.73042604296429
112,119991185.40467142
544,224813060.55296705
1093,0.0
1118,611840939.3744323
2,1, 7,21, 0,11, 0.00,60.00,SummerDesignDay
9,2.4
10,529.8608859013466
112,119991185.40467142
544,224813060.55296705
1093,0.0
1118,654418982.1223612
2,1, 7,21, 0,12, 0.00,60.00,SummerDesignDay
9,2.4
10,561.7438609980454
112,119991185.40467142
544,224813060.55296705
1093,0.0
1118,664602800.3732979
2,1, 7,21, 0,13, 0.00,60.00,SummerDesignDay
9,2.4
10,570.8458267551066
112,119991185.40467142
544,224813060.55296705
1093,0.0
1118,663089585.8289349
2,1, 7,21, 0,14, 0.00,60.00,SummerDesignDay
9,2.4
10,558.4131747035665
112,119991185.40467142
544,224813060.55296705
1093,0.0
1118,671775620.5930101
2,1, 7,21, 0,15, 0.00,60.00,SummerDesignDay
9,2.4
10,522.7428547735229
112,119991185.40467142
544,224813060.55296705
1093,0.0
1118,680423820.1746252
2,1, 7,21, 0,16, 0.00,60.00,SummerDesignDay
9,2.4
10,458.79708920135365
112,119991185.40467142
544,224813060.55296705
1093,0.0